1
Energy = -1488.228
H      0.000000    0.000000    0.000000
