<?xml version="1.0"?>
<VTKFile type="ImageData" version="1.0" byte_order="LittleEndian" header_type="UInt64">
<ImageData WholeExtent="0 25 25 50 1 1"
 Origin="0.0000 15.0000 0.0000" Spacing="0.6000 0.6000 0.6000">
<Piece Extent="0 25 25 50 1 1">
<PointData>
<DataArray Name="TEMPERATURE" NumberOfComponents="1" type="Float32" format="ascii">
27.6 28.6 28.7 27.7 27.0 26.4 26.1 26.1 26.6 27.5 28.3 29.4 30.2 29.9 29.5 30.3 33.9 42.2 52.2 60.0 64.5 63.8 54.5 42.4 49.9 55.0 26.6 28.0 28.0 26.8 26.5 26.3 26.4 26.6 27.3 28.2 29.0 29.7 30.1 29.8 29.5 30.5 33.2 36.5 41.1 48.4 57.5 64.0 61.5 48.6 40.8 50.4 25.3 26.7 27.0 26.2 26.5 26.5 26.8 27.1 27.5 28.2 29.2 30.0 30.5 30.4 30.1 30.4 32.5 35.4 37.5 40.0 45.6 52.5 56.0 50.2 40.1 37.8 25.7 26.7 26.9 26.7 27.1 27.2 27.5 27.5 27.5 28.0 29.0 29.5 29.7 30.3 31.1 31.4 31.8 33.5 36.0 37.5 39.2 41.6 43.3 41.7 37.8 36.2 26.5 27.4 27.6 27.5 27.6 27.6 27.9 27.7 27.6 27.9 28.7 28.8 28.8 29.4 31.2 32.9 33.6 34.0 35.5 37.6 38.4 38.0 37.2 34.7 32.3 33.7 26.5 27.7 28.0 27.7 27.7 27.6 27.8 27.7 27.3 27.3 27.8 28.4 28.7 28.8 29.9 32.6 35.4 36.5 37.0 38.3 39.1 37.5 35.3 33.3 31.6 32.9 25.7 27.3 27.9 27.5 27.8 27.9 28.1 27.8 27.3 26.6 26.6 27.3 28.4 28.8 28.9 30.7 34.7 37.9 39.4 40.9 41.5 38.7 34.9 33.7 33.5 33.9 24.9 26.8 27.7 27.5 28.1 28.4 28.5 28.3 27.8 26.7 26.1 26.5 28.0 29.1 29.0 29.3 32.2 36.4 40.1 44.3 46.8 43.3 37.9 36.7 37.1 37.0 25.0 26.6 27.6 27.7 28.4 28.6 28.5 28.2 28.0 27.2 26.6 27.0 28.4 29.5 29.7 29.3 30.2 33.0 36.9 43.6 50.5 50.7 45.9 43.6 43.5 41.7 24.9 26.6 27.7 27.9 28.3 28.3 28.0 27.6 27.6 27.3 27.2 27.7 28.9 29.7 30.1 30.0 29.9 30.5 32.2 37.6 47.7 55.0 55.2 53.2 51.6 48.2 24.0 25.9 27.5 27.9 28.3 27.9 27.5 27.1 27.2 27.3 27.3 27.8 28.8 29.2 29.5 29.7 29.6 29.5 29.6 31.6 39.7 51.5 58.8 60.4 57.8 52.6 23.2 25.1 26.9 27.7 28.2 27.8 27.5 27.5 27.6 27.5 27.4 27.9 28.8 28.9 28.9 28.6 28.5 28.9 29.1 28.9 32.1 42.0 53.6 60.9 60.6 53.9 22.9 24.4 26.3 27.4 27.9 27.6 27.5 27.9 28.2 27.8 27.3 27.6 28.3 28.8 29.1 28.7 28.2 28.5 29.0 28.9 29.2 33.2 42.3 53.3 59.9 55.8 23.1 24.5 26.7 27.9 28.2 27.7 27.7 28.3 28.6 28.1 27.4 27.2 27.6 28.6 29.5 29.5 28.8 28.2 28.6 29.2 29.4 29.9 33.6 43.0 55.1 57.4 23.1 24.5 26.9 28.4 28.7 28.2 28.0 28.3 28.5 28.2 27.7 27.4 27.4 27.9 28.9 29.7 29.6 28.7 28.5 29.3 30.1 30.2 31.0 36.2 48.1 55.9 23.4 24.6 26.9 28.8 29.4 29.0 28.5 28.3 28.3 28.1 27.7 27.5 27.3 27.4 28.4 30.0 30.8 30.1 29.1 29.5 30.4 30.5 30.1 32.5 41.8 51.8 23.3 24.7 26.7 28.1 28.8 28.9 28.7 28.3 28.3 28.0 27.7 27.5 27.4 27.5 28.2 29.7 31.4 31.9 31.1 30.6 30.8 31.0 30.0 30.0 35.7 45.5 23.9 25.0 26.4 27.5 28.3 28.9 29.1 28.7 28.6 28.1 27.8 27.5 27.5 27.6 27.9 29.3 31.7 33.7 33.9 32.7 31.6 31.4 30.6 29.1 30.7 37.0 24.6 25.6 26.8 27.8 28.7 29.3 29.4 29.3 28.9 28.3 28.0 27.8 27.8 27.9 28.0 29.0 31.2 33.7 35.0 34.2 32.2 30.8 30.3 29.5 28.8 31.1 25.1 26.2 27.3 28.1 29.1 29.9 30.0 29.8 29.5 29.0 28.8 28.6 28.7 28.7 28.7 29.0 30.2 32.4 34.1 33.8 31.5 29.5 29.6 30.2 29.6 30.1 25.3 26.5 27.7 28.4 29.2 30.2 30.5 30.1 29.8 29.4 29.5 29.4 29.5 29.7 29.7 29.8 30.3 31.2 32.1 31.8 29.8 27.9 28.1 29.6 29.9 29.4 25.3 26.7 27.9 28.3 28.9 29.7 30.1 30.1 30.4 30.4 30.4 30.4 30.7 30.9 30.9 30.7 30.6 30.6 30.5 29.7 28.0 26.6 26.8 28.4 28.8 27.6 24.5 26.0 27.2 27.9 28.5 28.8 29.0 29.5 30.3 30.8 30.7 30.6 31.0 31.3 31.5 31.2 30.9 30.6 29.8 28.5 26.7 25.6 25.9 26.9 27.6 26.6 24.3 25.6 26.8 27.6 27.9 27.4 27.2 28.0 29.1 30.1 30.3 30.3 31.0 31.5 31.7 31.2 31.0 30.7 29.6 27.9 26.1 25.1 24.9 25.8 27.0 27.0 23.2 24.6 25.7 26.4 26.3 25.7 25.6 25.7 26.5 27.6 28.2 28.8 29.6 30.2 30.5 30.1 30.3 30.2 29.3 27.4 25.3 23.9 23.4 24.2 25.9 26.9 21.1 23.0 24.2 24.6 24.5 24.4 24.8 24.1 24.2 25.2 26.0 26.9 27.4 27.9 28.6 28.8 29.1 29.2 28.8 27.1 24.7 22.7 21.9 22.5 24.5 26.0 
</DataArray>
</PointData>
</Piece>
</ImageData>
</VTKFile>
