<?xml version="1.0"?>
<VTKFile type="ImageData" version="1.0" byte_order="LittleEndian" header_type="UInt64">
<ImageData WholeExtent="25 50 0 25 0 15"
 Origin="15.0000 0.0000 0.0000" Spacing="0.6000 0.6000 0.6000">
<Piece Extent="25 50 0 25 0 15">
<PointData>
<DataArray Name="TEMPERATURE" NumberOfComponents="1" type="Float32" format="ascii">
20.0 20.0 20.0 20.0 20.0 20.1 20.1 20.0 20.1 20.1 20.1 20.1 20.0 20.0 20.0 20.0 20.0 20.0 20.0 20.0 20.0 20.0 20.0 20.0 20.0 20.0 20.1 20.1 20.1 20.1 20.1 20.1 20.1 20.1 20.1 20.1 20.1 20.1 20.1 20.1 20.1 20.1 20.1 20.1 20.1 20.1 20.1 20.1 20.1 20.1 20.0 20.0 20.1 20.1 20.1 20.2 20.2 20.2 20.2 20.2 20.2 20.3 20.3 20.2 20.2 20.2 20.1 20.1 20.1 20.1 20.1 20.1 20.1 20.1 20.1 20.1 20.1 20.0 20.2 20.2 20.2 20.3 20.3 20.3 20.3 20.3 20.3 20.4 20.3 20.3 20.2 20.2 20.2 20.2 20.2 20.2 20.2 20.2 20.2 20.2 20.2 20.1 20.1 20.0 20.3 20.3 20.3 20.4 20.4 20.4 20.4 20.4 20.4 20.5 20.4 20.4 20.3 20.3 20.3 20.3 20.3 20.3 20.3 20.3 20.3 20.3 20.2 20.1 20.1 20.0 20.4 20.4 20.4 20.5 20.5 20.5 20.5 20.5 20.6 20.6 20.5 20.5 20.4 20.4 20.4 20.4 20.4 20.4 20.4 20.4 20.4 20.3 20.2 20.1 20.1 20.0 20.5 20.5 20.6 20.6 20.7 20.7 20.6 20.7 20.7 20.7 20.6 20.6 20.5 20.5 20.5 20.5 20.5 20.5 20.5 20.5 20.4 20.3 20.2 20.1 20.1 20.0 20.6 20.6 20.7 20.8 20.8 20.8 20.8 20.8 20.8 20.8 20.8 20.7 20.7 20.7 20.6 20.6 20.6 20.6 20.6 20.5 20.4 20.3 20.2 20.1 20.1 20.0 20.7 20.8 20.9 21.0 21.0 21.0 21.0 21.0 21.0 21.0 20.9 20.8 20.8 20.8 20.7 20.7 20.7 20.8 20.7 20.5 20.4 20.3 20.2 20.2 20.1 20.0 20.9 20.9 21.0 21.1 21.2 21.2 21.2 21.2 21.2 21.2 21.1 21.0 20.9 20.9 20.9 20.9 20.9 20.8 20.7 20.5 20.4 20.3 20.3 20.2 20.1 20.0 21.0 21.1 21.2 21.3 21.4 21.4 21.4 21.4 21.4 21.4 21.3 21.2 21.1 21.1 21.1 21.1 21.0 20.8 20.7 20.6 20.5 20.4 20.3 20.2 20.1 20.0 21.2 21.2 21.4 21.5 21.6 21.6 21.7 21.7 21.7 21.6 21.5 21.3 21.3 21.3 21.3 21.2 21.0 20.8 20.7 20.6 20.5 20.4 20.3 20.2 20.1 20.1 21.3 21.5 21.6 21.8 22.0 22.0 22.0 22.0 21.9 21.8 21.7 21.6 21.6 21.6 21.5 21.2 21.0 20.9 20.8 20.6 20.5 20.4 20.3 20.2 20.1 20.1 21.6 21.7 21.9 22.1 22.3 22.5 22.5 22.4 22.3 22.2 22.0 21.9 21.9 21.8 21.5 21.3 21.1 21.0 20.8 20.7 20.6 20.4 20.3 20.2 20.1 20.1 21.8 22.0 22.2 22.4 22.7 23.0 23.0 22.9 22.8 22.6 22.4 22.3 22.2 21.9 21.6 21.4 21.2 21.0 20.9 20.7 20.6 20.5 20.3 20.2 20.1 20.1 22.1 22.3 22.6 22.9 23.2 23.5 23.6 23.5 23.3 23.1 22.9 22.7 22.3 22.0 21.7 21.5 21.3 21.1 20.9 20.8 20.6 20.5 20.4 20.2 20.1 20.1 22.5 22.7 23.1 23.6 23.9 24.2 24.3 24.2 23.9 23.7 23.4 22.9 22.5 22.1 21.8 21.6 21.3 21.1 21.0 20.8 20.7 20.5 20.4 20.3 20.1 20.1 22.9 23.2 23.7 24.3 24.9 25.5 25.5 25.1 24.8 24.4 23.9 23.2 22.6 22.2 21.9 21.7 21.4 21.2 21.0 20.9 20.7 20.6 20.4 20.3 20.1 20.1 23.5 23.9 24.4 25.1 26.1 27.2 27.2 26.6 25.9 25.1 24.2 23.4 22.9 22.5 22.1 21.8 21.6 21.4 21.2 21.0 20.9 20.7 20.5 20.3 20.2 20.1 24.1 24.7 25.3 26.4 28.7 31.0 31.6 29.7 27.3 25.9 24.6 23.9 23.4 22.9 22.5 22.2 21.8 21.6 21.4 21.2 21.0 20.7 20.5 20.3 20.2 20.1 25.1 26.0 27.3 29.6 31.8 33.9 34.9 32.3 29.4 26.8 25.3 24.6 24.1 23.4 22.9 22.5 22.0 21.7 21.4 21.2 21.0 20.7 20.5 20.3 20.2 20.1 26.1 27.7 29.5 33.8 37.0 20.0 20.0 34.8 31.9 28.0 26.2 25.3 24.5 23.7 23.0 22.6 22.1 21.7 21.4 21.1 20.9 20.7 20.4 20.3 20.1 20.1 26.3 28.2 30.1 34.7 38.3 20.0 20.0 36.1 32.6 28.3 26.7 25.3 24.4 23.6 23.0 22.5 22.1 21.7 21.4 21.1 20.9 20.6 20.4 20.3 20.2 20.1 25.7 27.4 28.9 32.1 35.3 40.1 44.0 37.7 31.1 27.4 26.3 24.9 23.8 23.3 22.8 22.4 22.1 21.7 21.4 21.1 20.9 20.7 20.5 20.3 20.2 20.1 24.8 25.9 26.9 28.9 31.7 34.9 37.0 33.8 28.5 26.1 25.4 24.3 23.4 22.9 22.5 22.2 22.0 21.6 21.3 21.1 20.8 20.7 20.5 20.3 20.2 20.1 23.1 24.7 25.5 26.6 27.6 28.5 28.9 27.7 26.0 24.9 24.3 23.6 23.0 22.5 22.1 21.9 21.7 21.5 21.2 21.0 20.8 20.6 20.4 20.3 20.2 20.1 20.0 20.0 20.0 20.0 20.0 20.1 20.1 20.0 20.1 20.1 20.1 20.0 20.0 20.0 20.0 20.0 20.0 20.0 20.0 20.0 20.0 20.0 20.0 20.0 20.0 20.0 20.1 20.1 20.1 20.1 20.1 20.1 20.1 20.1 20.1 20.1 20.1 20.1 20.1 20.1 20.1 20.1 20.1 20.1 20.1 20.1 20.0 20.0 20.0 20.1 20.0 20.0 20.1 20.1 20.1 20.1 20.1 20.2 20.2 20.2 20.2 20.2 20.2 20.2 20.1 20.1 20.1 20.1 20.1 20.1 20.1 20.1 20.1 20.1 20.1 20.1 20.1 20.0 20.2 20.2 20.2 20.2 20.3 20.3 20.3 20.3 20.3 20.3 20.3 20.3 20.2 20.2 20.2 20.2 20.2 20.2 20.2 20.2 20.2 20.2 20.2 20.1 20.1 20.0 20.3 20.3 20.3 20.3 20.4 20.4 20.4 20.4 20.5 20.4 20.4 20.3 20.3 20.3 20.3 20.3 20.3 20.3 20.3 20.3 20.3 20.3 20.2 20.1 20.1 20.0 20.4 20.4 20.4 20.5 20.5 20.5 20.5 20.5 20.6 20.6 20.5 20.4 20.4 20.4 20.4 20.4 20.4 20.3 20.3 20.4 20.4 20.3 20.2 20.1 20.1 20.0 20.5 20.5 20.5 20.6 20.6 20.6 20.6 20.7 20.7 20.7 20.6 20.5 20.5 20.5 20.5 20.5 20.4 20.5 20.5 20.5 20.4 20.3 20.2 20.1 20.1 20.0 20.6 20.6 20.7 20.8 20.8 20.8 20.8 20.8 20.8 20.8 20.7 20.6 20.6 20.6 20.6 20.6 20.6 20.6 20.6 20.5 20.4 20.3 20.2 20.1 20.1 20.0 20.7 20.8 20.8 20.9 21.0 21.0 21.0 21.0 21.0 20.9 20.9 20.8 20.8 20.7 20.7 20.7 20.7 20.8 20.7 20.5 20.4 20.3 20.2 20.1 20.1 20.0 20.8 20.9 21.0 21.1 21.2 21.2 21.2 21.2 21.2 21.1 21.0 20.9 20.9 20.9 20.9 20.9 20.9 20.8 20.6 20.5 20.4 20.3 20.2 20.1 20.1 20.0 21.0 21.0 21.2 21.3 21.4 21.4 21.4 21.4 21.4 21.3 21.2 21.1 21.1 21.1 21.1 21.1 21.0 20.8 20.6 20.5 20.4 20.3 20.2 20.2 20.1 20.0 21.1 21.2 21.4 21.5 21.6 21.7 21.7 21.7 21.7 21.5 21.4 21.3 21.3 21.3 21.3 21.2 21.0 20.8 20.7 20.6 20.5 20.4 20.3 20.2 20.1 20.0 21.3 21.5 21.6 21.9 22.0 22.1 22.1 22.0 21.9 21.8 21.7 21.6 21.6 21.6 21.5 21.2 21.0 20.8 20.7 20.6 20.5 20.4 20.3 20.2 20.1 20.1 21.6 21.7 21.9 22.2 22.4 22.5 22.5 22.5 22.4 22.2 22.0 22.0 21.9 21.8 21.5 21.3 21.1 20.9 20.8 20.6 20.5 20.4 20.3 20.2 20.1 20.1 21.9 22.0 22.2 22.5 22.8 23.1 23.2 23.0 22.8 22.6 22.4 22.4 22.2 21.9 21.6 21.3 21.2 21.0 20.8 20.7 20.6 20.4 20.3 20.2 20.1 20.1 22.2 22.4 22.7 23.0 23.3 23.7 23.8 23.7 23.4 23.1 23.0 22.7 22.4 22.0 21.7 21.4 21.2 21.0 20.9 20.7 20.6 20.5 20.3 20.2 20.1 20.1 22.6 22.9 23.2 23.7 24.2 24.6 24.7 24.5 24.1 23.8 23.5 23.0 22.5 22.1 21.8 21.6 21.3 21.1 20.9 20.8 20.6 20.5 20.4 20.2 20.1 20.1 23.1 23.4 23.9 24.6 25.3 25.9 26.5 26.0 25.1 24.6 24.0 23.3 22.7 22.3 22.0 21.7 21.4 21.2 21.0 20.9 20.7 20.6 20.4 20.3 20.1 20.1 23.6 24.1 24.8 27.0 28.5 28.4 29.0 28.3 26.5 25.3 24.4 23.6 23.0 22.5 22.2 21.9 21.6 21.4 21.2 21.0 20.9 20.7 20.5 20.3 20.2 20.1 24.3 25.0 25.9 30.1 33.8 35.4 36.2 32.6 28.2 26.1 24.9 24.0 23.5 22.9 22.5 22.2 21.9 21.6 21.4 21.2 20.9 20.7 20.5 20.3 20.2 20.1 25.3 26.5 29.1 34.5 48.0 91.6 101.3 54.2 31.4 27.4 25.6 24.8 24.1 23.5 23.0 22.5 22.1 21.7 21.4 21.2 20.9 20.7 20.5 20.3 20.2 20.1 26.6 28.4 31.7 42.7 101.6 311.4 306.8 94.1 38.0 29.3 26.7 25.5 24.7 23.8 23.1 22.6 22.1 21.8 21.4 21.2 20.9 20.7 20.5 20.3 20.1 20.1 26.9 29.1 31.9 44.7 125.6 354.0 360.1 132.3 45.6 29.9 27.3 25.7 24.6 23.8 23.0 22.5 22.1 21.8 21.4 21.1 20.9 20.6 20.4 20.3 20.1 20.1 26.1 27.9 30.3 37.8 71.3 124.6 142.7 92.2 41.2 28.2 26.6 25.2 24.1 23.4 22.8 22.4 22.1 21.7 21.4 21.1 20.9 20.6 20.5 20.3 20.2 20.1 24.9 26.1 27.4 30.9 35.6 39.9 41.7 37.4 30.3 26.4 25.5 24.5 23.6 23.0 22.5 22.2 21.9 21.6 21.3 21.0 20.8 20.6 20.5 20.3 20.2 20.1 23.2 24.8 25.8 27.0 28.6 30.4 30.4 28.4 26.4 25.1 24.4 23.7 23.1 22.6 22.2 21.9 21.7 21.4 21.2 20.9 20.7 20.6 20.4 20.3 20.1 20.1 20.0 20.0 20.0 20.0 20.0 20.0 20.0 20.0 20.1 20.1 20.1 20.0 20.0 20.0 20.0 20.0 20.0 20.0 20.0 20.0 20.0 20.0 20.0 20.0 20.0 20.0 20.1 20.1 20.1 20.1 20.1 20.1 20.1 20.1 20.1 20.1 20.1 20.1 20.1 20.1 20.1 20.1 20.0 20.0 20.0 20.0 20.0 20.0 20.0 20.0 20.0 20.0 20.1 20.1 20.1 20.1 20.1 20.2 20.2 20.2 20.2 20.2 20.2 20.1 20.1 20.1 20.1 20.1 20.1 20.1 20.1 20.1 20.1 20.1 20.1 20.1 20.0 20.0 20.2 20.2 20.2 20.2 20.2 20.2 20.2 20.3 20.3 20.3 20.3 20.2 20.2 20.2 20.2 20.2 20.2 20.2 20.1 20.1 20.2 20.2 20.2 20.1 20.0 20.0 20.3 20.3 20.3 20.3 20.3 20.3 20.3 20.4 20.4 20.4 20.3 20.3 20.3 20.3 20.3 20.2 20.2 20.2 20.2 20.2 20.3 20.3 20.2 20.1 20.0 20.0 20.3 20.4 20.4 20.4 20.5 20.5 20.5 20.5 20.5 20.5 20.4 20.4 20.4 20.3 20.3 20.3 20.3 20.3 20.3 20.4 20.4 20.3 20.2 20.1 20.0 20.0 20.4 20.5 20.5 20.6 20.6 20.6 20.6 20.6 20.7 20.6 20.5 20.5 20.5 20.4 20.4 20.4 20.4 20.4 20.5 20.5 20.4 20.3 20.2 20.1 20.0 20.0 20.5 20.6 20.6 20.7 20.8 20.8 20.8 20.8 20.8 20.7 20.7 20.6 20.6 20.5 20.5 20.5 20.5 20.6 20.6 20.5 20.3 20.2 20.2 20.1 20.1 20.0 20.6 20.7 20.8 20.9 20.9 20.9 21.0 21.0 21.0 20.9 20.8 20.7 20.7 20.7 20.6 20.7 20.7 20.7 20.6 20.4 20.3 20.2 20.2 20.1 20.1 20.0 20.8 20.9 21.0 21.1 21.1 21.1 21.2 21.2 21.2 21.1 21.0 20.9 20.8 20.8 20.8 20.9 20.9 20.8 20.6 20.4 20.3 20.3 20.2 20.1 20.1 20.0 20.9 21.0 21.1 21.3 21.4 21.4 21.4 21.5 21.4 21.3 21.2 21.1 21.0 21.1 21.1 21.1 21.0 20.7 20.5 20.4 20.4 20.3 20.2 20.1 20.1 20.0 21.1 21.2 21.4 21.5 21.7 21.7 21.8 21.8 21.7 21.5 21.4 21.3 21.3 21.4 21.3 21.2 20.9 20.7 20.6 20.5 20.4 20.3 20.2 20.1 20.1 20.0 21.3 21.5 21.6 21.9 22.1 22.2 22.2 22.1 22.0 21.8 21.7 21.6 21.6 21.6 21.5 21.2 20.9 20.8 20.6 20.5 20.4 20.3 20.2 20.2 20.1 20.0 21.6 21.7 21.9 22.2 22.5 22.7 22.7 22.6 22.4 22.2 22.1 22.0 22.0 21.9 21.5 21.2 21.0 20.8 20.7 20.6 20.5 20.4 20.3 20.2 20.1 20.0 21.9 22.1 22.4 22.7 23.0 23.3 23.4 23.3 22.9 22.7 22.6 22.5 22.3 22.0 21.6 21.3 21.1 20.9 20.8 20.6 20.5 20.4 20.3 20.2 20.1 20.0 22.3 22.5 22.9 23.3 23.7 24.1 24.2 24.0 23.6 23.3 23.2 22.9 22.5 22.0 21.7 21.4 21.2 21.0 20.8 20.7 20.5 20.4 20.3 20.2 20.1 20.0 22.8 23.1 23.5 24.1 24.8 25.4 25.9 25.4 24.5 24.1 23.7 23.2 22.7 22.2 21.8 21.6 21.3 21.1 20.9 20.7 20.6 20.4 20.3 20.2 20.1 20.1 23.4 23.8 24.5 27.0 28.0 27.8 31.8 31.5 26.7 24.9 24.3 23.5 22.9 22.4 22.0 21.7 21.4 21.2 21.0 20.8 20.7 20.5 20.4 20.3 20.1 20.1 24.0 24.7 26.1 35.2 37.4 33.4 42.3 42.2 30.7 25.8 24.8 23.9 23.2 22.7 22.3 21.9 21.6 21.3 21.1 21.0 20.8 20.6 20.5 20.3 20.1 20.1 24.8 25.8 30.5 49.2 55.1 54.8 69.1 61.3 37.6 26.9 25.4 24.4 23.7 23.0 22.6 22.2 21.8 21.6 21.3 21.1 20.9 20.7 20.5 20.3 20.1 20.1 25.8 27.6 35.9 62.5 106.2 172.6 193.4 124.1 53.7 29.0 26.3 25.1 24.3 23.5 23.0 22.5 22.1 21.7 21.4 21.1 20.9 20.7 20.5 20.3 20.1 20.1 27.2 30.5 37.7 72.0 192.0 365.0 368.0 212.4 90.7 37.2 28.0 26.2 25.0 24.0 23.3 22.7 22.2 21.8 21.4 21.2 20.9 20.7 20.5 20.3 20.1 20.1 27.7 31.0 37.1 76.2 219.3 391.5 403.9 252.5 99.3 38.0 28.7 26.6 25.2 24.1 23.3 22.7 22.2 21.8 21.5 21.2 20.9 20.6 20.4 20.2 20.1 20.1 26.5 28.6 33.9 64.4 146.3 219.4 236.2 162.0 60.1 30.1 27.5 25.9 24.7 23.7 23.1 22.5 22.1 21.7 21.4 21.1 20.9 20.6 20.4 20.3 20.1 20.1 25.2 26.5 29.0 41.0 63.1 76.9 72.8 52.3 32.9 27.2 25.9 24.9 24.0 23.2 22.7 22.2 21.8 21.5 21.3 21.0 20.8 20.6 20.4 20.3 20.1 20.1 23.4 25.2 26.2 28.1 31.7 35.9 36.4 31.6 27.2 25.7 24.8 24.0 23.3 22.7 22.3 21.9 21.6 21.3 21.1 20.9 20.7 20.6 20.4 20.3 20.1 20.1 20.0 20.0 20.0 20.0 20.0 20.0 20.0 20.0 20.0 20.0 20.0 20.0 20.0 20.0 20.0 20.0 20.0 20.0 20.0 20.0 20.0 20.0 20.0 20.0 20.0 20.0 20.1 20.1 20.1 20.1 20.1 20.1 20.1 20.1 20.1 20.1 20.1 20.1 20.1 20.1 20.1 20.1 20.0 20.0 20.0 20.0 20.0 20.0 20.0 20.0 20.0 20.0 20.1 20.1 20.1 20.1 20.1 20.2 20.2 20.2 20.2 20.2 20.2 20.1 20.1 20.1 20.1 20.1 20.1 20.1 20.1 20.1 20.1 20.1 20.1 20.1 20.0 20.0 20.2 20.2 20.2 20.2 20.2 20.2 20.2 20.3 20.3 20.3 20.2 20.2 20.2 20.2 20.2 20.2 20.2 20.2 20.1 20.1 20.1 20.2 20.1 20.1 20.0 20.0 20.3 20.3 20.3 20.3 20.4 20.4 20.4 20.4 20.4 20.4 20.3 20.3 20.3 20.3 20.3 20.2 20.2 20.2 20.2 20.2 20.3 20.2 20.2 20.1 20.0 20.0 20.3 20.4 20.4 20.5 20.5 20.5 20.5 20.5 20.5 20.5 20.4 20.4 20.4 20.3 20.3 20.3 20.3 20.3 20.3 20.4 20.3 20.3 20.2 20.1 20.0 20.0 20.4 20.5 20.5 20.6 20.6 20.6 20.6 20.6 20.6 20.6 20.5 20.5 20.5 20.4 20.4 20.4 20.4 20.4 20.5 20.5 20.4 20.3 20.2 20.1 20.0 20.0 20.5 20.6 20.7 20.8 20.8 20.8 20.8 20.8 20.8 20.7 20.7 20.6 20.6 20.6 20.5 20.5 20.6 20.6 20.6 20.5 20.3 20.2 20.2 20.1 20.0 20.0 20.7 20.7 20.8 20.9 21.0 21.0 21.0 21.0 21.0 20.9 20.8 20.7 20.7 20.7 20.7 20.7 20.7 20.7 20.6 20.4 20.3 20.2 20.2 20.1 20.1 20.0 20.8 20.9 21.0 21.1 21.2 21.2 21.2 21.2 21.2 21.1 21.0 20.9 20.9 20.8 20.9 20.9 20.9 20.8 20.6 20.4 20.3 20.3 20.2 20.1 20.1 20.0 21.0 21.1 21.2 21.3 21.4 21.5 21.5 21.5 21.4 21.3 21.2 21.1 21.1 21.1 21.1 21.1 20.9 20.7 20.6 20.4 20.4 20.3 20.2 20.1 20.1 20.0 21.2 21.3 21.4 21.6 21.7 21.8 21.8 21.8 21.7 21.5 21.4 21.3 21.3 21.4 21.3 21.2 20.9 20.7 20.6 20.5 20.4 20.3 20.2 20.1 20.1 20.0 21.4 21.5 21.7 21.9 22.1 22.2 22.3 22.2 22.1 21.9 21.7 21.7 21.7 21.7 21.5 21.2 20.9 20.8 20.7 20.5 20.4 20.3 20.2 20.1 20.1 20.0 21.7 21.8 22.0 22.3 22.5 22.7 22.8 22.8 22.5 22.3 22.2 22.1 22.0 21.9 21.6 21.2 21.0 20.9 20.7 20.6 20.5 20.4 20.3 20.2 20.1 20.0 22.0 22.2 22.4 22.7 23.1 23.3 23.5 23.4 23.1 22.8 22.7 22.6 22.3 22.0 21.6 21.3 21.1 21.0 20.8 20.6 20.5 20.4 20.3 20.2 20.1 20.0 22.4 22.7 23.0 23.4 23.9 24.3 24.4 24.2 23.8 23.5 23.3 23.0 22.6 22.1 21.7 21.5 21.2 21.0 20.9 20.7 20.5 20.4 20.3 20.2 20.1 20.0 22.9 23.3 23.9 24.6 25.5 26.4 26.7 26.0 24.9 24.4 23.9 23.4 22.8 22.3 21.9 21.6 21.4 21.1 20.9 20.7 20.6 20.4 20.3 20.2 20.1 20.1 23.6 24.1 25.7 28.4 29.1 30.6 35.5 33.8 27.6 25.3 24.6 23.8 23.1 22.5 22.1 21.8 21.5 21.2 21.0 20.8 20.6 20.5 20.4 20.2 20.1 20.1 24.7 26.4 30.7 39.2 38.8 41.8 56.9 51.5 33.4 26.5 25.3 24.3 23.5 22.8 22.3 22.0 21.6 21.3 21.1 20.9 20.7 20.6 20.4 20.3 20.1 20.1 27.4 33.1 47.2 64.6 63.8 90.3 131.5 106.5 54.0 30.1 26.1 24.8 23.9 23.2 22.7 22.2 21.9 21.5 21.3 21.0 20.8 20.6 20.5 20.3 20.1 20.1 29.1 41.4 67.3 110.6 161.4 243.3 295.5 205.0 79.9 33.8 27.3 25.6 24.6 23.7 23.1 22.6 22.1 21.7 21.4 21.1 20.9 20.7 20.5 20.3 20.1 20.1 28.9 41.2 66.3 140.8 281.6 410.4 435.4 315.9 147.3 54.3 30.2 26.9 25.5 24.3 23.5 22.8 22.3 21.8 21.4 21.1 20.9 20.7 20.5 20.3 20.1 20.1 29.0 35.2 59.8 149.7 304.5 424.1 448.4 342.7 164.4 57.8 31.2 27.4 25.8 24.5 23.7 22.9 22.3 21.8 21.5 21.2 20.9 20.7 20.4 20.3 20.1 20.1 28.5 31.1 50.8 115.2 209.5 275.5 300.9 222.4 89.4 36.2 28.8 26.5 25.2 24.1 23.4 22.7 22.2 21.8 21.4 21.1 20.9 20.7 20.4 20.3 20.1 20.1 26.8 28.0 33.8 52.3 85.4 108.2 115.5 87.9 43.3 29.0 26.4 25.3 24.3 23.5 22.9 22.4 21.9 21.6 21.3 21.1 20.8 20.6 20.5 20.3 20.1 20.1 23.9 25.8 26.9 28.9 33.9 40.4 43.9 37.5 29.0 26.5 25.2 24.3 23.5 22.9 22.4 22.0 21.7 21.4 21.2 20.9 20.7 20.6 20.4 20.3 20.1 20.1 20.0 20.0 20.0 20.0 20.0 20.0 20.0 20.1 20.1 20.0 20.0 20.0 20.0 20.0 20.0 20.0 20.0 20.0 20.0 20.0 20.0 20.0 20.0 20.0 20.0 20.0 20.1 20.1 20.1 20.1 20.1 20.1 20.1 20.1 20.1 20.1 20.1 20.1 20.1 20.1 20.1 20.1 20.1 20.1 20.0 20.0 20.0 20.0 20.0 20.0 20.0 20.0 20.1 20.1 20.1 20.2 20.2 20.2 20.2 20.2 20.2 20.2 20.2 20.1 20.1 20.1 20.1 20.1 20.1 20.1 20.1 20.1 20.1 20.1 20.1 20.1 20.0 20.0 20.2 20.2 20.2 20.3 20.3 20.3 20.3 20.3 20.3 20.3 20.3 20.2 20.2 20.2 20.2 20.2 20.2 20.2 20.2 20.2 20.2 20.2 20.2 20.1 20.0 20.0 20.3 20.3 20.3 20.4 20.4 20.4 20.4 20.4 20.4 20.4 20.4 20.3 20.3 20.3 20.3 20.3 20.3 20.3 20.3 20.3 20.3 20.3 20.2 20.1 20.0 20.0 20.4 20.4 20.5 20.5 20.5 20.5 20.5 20.5 20.5 20.5 20.5 20.4 20.4 20.4 20.4 20.4 20.4 20.4 20.4 20.4 20.4 20.3 20.2 20.1 20.0 20.0 20.5 20.5 20.6 20.7 20.7 20.6 20.6 20.7 20.7 20.7 20.6 20.5 20.5 20.5 20.5 20.5 20.5 20.5 20.5 20.5 20.4 20.3 20.2 20.1 20.0 20.0 20.6 20.7 20.7 20.8 20.8 20.8 20.8 20.9 20.9 20.8 20.7 20.7 20.6 20.6 20.6 20.6 20.6 20.6 20.6 20.5 20.4 20.3 20.2 20.1 20.1 20.0 20.7 20.8 20.9 21.0 21.0 21.0 21.0 21.1 21.1 21.0 20.9 20.8 20.8 20.8 20.8 20.8 20.8 20.7 20.6 20.5 20.4 20.3 20.2 20.1 20.1 20.0 20.9 21.0 21.1 21.2 21.2 21.2 21.3 21.3 21.3 21.2 21.1 21.0 21.0 20.9 20.9 20.9 20.9 20.8 20.6 20.5 20.4 20.3 20.2 20.1 20.1 20.0 21.1 21.2 21.3 21.4 21.5 21.5 21.5 21.6 21.5 21.4 21.3 21.2 21.2 21.2 21.2 21.1 21.0 20.8 20.6 20.5 20.4 20.3 20.2 20.1 20.1 20.0 21.2 21.4 21.5 21.7 21.8 21.8 21.9 21.9 21.8 21.7 21.6 21.5 21.4 21.4 21.4 21.2 21.0 20.8 20.7 20.6 20.4 20.3 20.2 20.2 20.1 20.0 21.5 21.6 21.8 22.0 22.1 22.2 22.3 22.3 22.2 22.0 21.9 21.8 21.7 21.7 21.5 21.3 21.0 20.9 20.8 20.6 20.5 20.4 20.3 20.2 20.1 20.0 21.8 21.9 22.1 22.3 22.5 22.6 22.7 22.8 22.6 22.4 22.3 22.2 22.1 21.9 21.6 21.3 21.1 21.0 20.8 20.7 20.6 20.4 20.3 20.2 20.1 20.0 22.1 22.3 22.5 22.7 23.0 23.3 23.5 23.4 23.2 22.9 22.8 22.6 22.4 22.0 21.7 21.5 21.3 21.1 20.9 20.7 20.6 20.5 20.3 20.2 20.1 20.0 22.5 22.9 23.2 23.5 23.8 24.1 24.4 24.3 23.9 23.6 23.4 23.1 22.7 22.2 21.9 21.6 21.4 21.2 21.0 20.8 20.6 20.5 20.3 20.2 20.1 20.1 23.0 23.8 24.6 24.8 25.4 26.5 26.7 25.8 25.0 24.5 24.0 23.5 23.0 22.5 22.1 21.8 21.5 21.3 21.0 20.8 20.7 20.5 20.4 20.2 20.1 20.1 23.7 25.0 26.8 27.4 26.7 29.4 32.4 29.9 26.6 25.4 24.7 24.0 23.3 22.7 22.3 21.9 21.6 21.3 21.1 20.9 20.7 20.5 20.4 20.3 20.1 20.1 25.4 30.7 35.5 35.1 30.3 38.8 51.1 43.3 31.5 26.7 25.4 24.5 23.7 23.0 22.5 22.1 21.8 21.5 21.2 21.0 20.8 20.6 20.4 20.3 20.1 20.1 30.4 49.0 64.1 60.6 47.3 89.7 141.6 112.8 59.9 31.6 26.4 25.0 24.1 23.4 22.9 22.4 22.0 21.7 21.4 21.1 20.9 20.7 20.5 20.3 20.1 20.1 33.1 68.0 113.2 142.5 129.2 197.9 293.5 204.3 79.4 36.4 27.9 26.0 24.9 23.9 23.3 22.7 22.3 21.9 21.5 21.2 20.9 20.7 20.5 20.3 20.1 20.1 31.5 61.5 125.1 213.0 227.3 297.7 404.0 299.8 142.6 61.8 31.1 27.4 25.8 24.6 23.7 22.9 22.4 21.9 21.5 21.2 20.9 20.7 20.5 20.3 20.1 20.1 32.1 53.1 120.1 229.7 247.3 314.0 423.3 335.3 172.8 67.2 32.3 27.8 26.1 24.8 23.9 23.0 22.4 21.9 21.6 21.2 20.9 20.7 20.5 20.3 20.1 20.1 32.5 51.0 99.0 162.0 174.7 217.5 302.7 240.6 101.4 40.2 29.4 26.7 25.4 24.3 23.6 22.9 22.3 21.9 21.6 21.2 20.9 20.7 20.5 20.3 20.1 20.1 29.2 40.5 52.8 60.1 75.5 93.5 128.3 111.8 50.0 29.9 26.8 25.4 24.5 23.7 23.1 22.6 22.1 21.8 21.5 21.2 20.9 20.7 20.5 20.3 20.1 20.1 24.6 31.1 33.1 31.1 34.3 39.9 46.2 40.7 29.7 26.7 25.4 24.5 23.7 23.2 22.7 22.2 21.9 21.6 21.3 21.1 20.8 20.6 20.5 20.3 20.1 20.1 20.0 20.0 20.0 20.0 20.0 20.0 20.0 20.1 20.1 20.1 20.0 20.0 20.0 20.0 20.0 20.0 20.0 20.0 20.0 20.0 20.0 20.0 20.0 20.0 20.0 20.0 20.1 20.1 20.1 20.1 20.1 20.1 20.1 20.1 20.1 20.1 20.1 20.1 20.1 20.1 20.1 20.1 20.1 20.1 20.1 20.1 20.1 20.1 20.1 20.1 20.0 20.0 20.1 20.2 20.2 20.2 20.2 20.2 20.2 20.2 20.2 20.2 20.2 20.2 20.2 20.1 20.1 20.1 20.1 20.1 20.1 20.1 20.1 20.1 20.1 20.1 20.1 20.0 20.2 20.2 20.3 20.3 20.3 20.3 20.3 20.3 20.3 20.3 20.3 20.3 20.2 20.2 20.2 20.2 20.2 20.2 20.2 20.2 20.2 20.2 20.2 20.1 20.1 20.0 20.3 20.3 20.4 20.4 20.4 20.4 20.4 20.4 20.4 20.4 20.4 20.4 20.4 20.3 20.3 20.3 20.3 20.3 20.3 20.3 20.3 20.3 20.2 20.1 20.1 20.0 20.4 20.5 20.5 20.5 20.5 20.5 20.5 20.6 20.6 20.6 20.5 20.5 20.5 20.5 20.4 20.4 20.4 20.4 20.4 20.4 20.4 20.3 20.2 20.1 20.1 20.0 20.5 20.6 20.7 20.7 20.7 20.7 20.7 20.7 20.7 20.7 20.7 20.6 20.6 20.6 20.6 20.6 20.6 20.5 20.5 20.5 20.4 20.3 20.2 20.1 20.1 20.0 20.7 20.7 20.8 20.8 20.8 20.8 20.9 20.9 20.9 20.9 20.8 20.8 20.7 20.7 20.7 20.7 20.7 20.7 20.6 20.5 20.4 20.3 20.2 20.1 20.1 20.0 20.8 20.9 21.0 21.0 21.0 21.0 21.1 21.1 21.1 21.1 21.0 20.9 20.9 20.9 20.9 20.9 20.8 20.8 20.7 20.6 20.4 20.3 20.2 20.1 20.1 20.0 20.9 21.0 21.1 21.2 21.2 21.2 21.3 21.4 21.4 21.3 21.2 21.2 21.1 21.1 21.0 21.0 20.9 20.8 20.7 20.6 20.5 20.4 20.3 20.2 20.1 20.0 21.1 21.2 21.3 21.5 21.5 21.5 21.6 21.6 21.6 21.5 21.4 21.4 21.3 21.3 21.2 21.1 21.0 20.9 20.7 20.6 20.5 20.4 20.3 20.2 20.1 20.0 21.3 21.4 21.6 21.7 21.7 21.8 21.9 22.0 21.9 21.8 21.7 21.6 21.5 21.5 21.4 21.2 21.1 20.9 20.8 20.7 20.6 20.4 20.3 20.2 20.1 20.0 21.6 21.7 21.8 22.0 22.1 22.1 22.3 22.4 22.3 22.2 22.0 21.9 21.8 21.7 21.5 21.3 21.2 21.0 20.9 20.7 20.6 20.4 20.3 20.2 20.1 20.0 21.9 22.0 22.2 22.3 22.5 22.6 22.7 22.8 22.8 22.6 22.4 22.3 22.1 21.9 21.7 21.5 21.3 21.1 21.0 20.8 20.6 20.5 20.3 20.2 20.1 20.1 22.2 22.4 22.5 22.7 22.9 23.1 23.4 23.5 23.3 23.1 22.9 22.7 22.4 22.1 21.9 21.6 21.4 21.2 21.0 20.8 20.7 20.5 20.4 20.2 20.1 20.1 22.6 23.0 23.3 23.5 23.5 23.8 24.2 24.3 24.1 23.8 23.4 23.1 22.7 22.4 22.1 21.8 21.5 21.3 21.1 20.9 20.7 20.5 20.4 20.2 20.1 20.1 23.1 24.0 24.7 24.6 24.8 25.6 26.1 25.6 25.0 24.6 24.1 23.5 23.1 22.6 22.3 21.9 21.7 21.4 21.2 20.9 20.7 20.6 20.4 20.2 20.1 20.1 24.0 25.5 26.7 25.7 25.0 27.3 28.9 27.6 26.2 25.4 24.7 24.1 23.5 22.9 22.5 22.1 21.8 21.5 21.2 21.0 20.8 20.6 20.4 20.3 20.1 20.1 26.8 31.8 34.1 29.9 27.3 33.1 38.2 35.6 30.4 26.7 25.6 24.6 23.8 23.2 22.7 22.3 22.0 21.7 21.4 21.1 20.9 20.7 20.5 20.3 20.1 20.1 38.3 56.0 62.0 47.4 42.2 70.3 90.8 79.7 52.4 29.8 26.6 25.4 24.4 23.5 23.0 22.6 22.2 21.8 21.5 21.2 21.0 20.8 20.5 20.3 20.2 20.1 51.8 97.2 135.7 115.5 82.9 134.7 183.1 133.4 65.8 34.1 27.9 26.4 25.2 24.2 23.4 22.9 22.4 22.0 21.6 21.3 21.0 20.8 20.5 20.3 20.2 20.1 52.2 107.2 178.2 176.1 137.5 220.0 300.6 223.0 112.9 53.9 30.9 27.7 26.2 24.8 23.9 23.1 22.5 22.0 21.6 21.3 21.0 20.7 20.5 20.3 20.1 20.1 52.3 105.4 184.0 190.3 159.9 259.3 356.0 276.0 138.8 59.9 32.4 28.1 26.3 25.0 24.0 23.2 22.6 22.1 21.6 21.3 21.0 20.7 20.5 20.3 20.1 20.1 52.7 93.6 143.8 144.9 125.6 176.6 256.1 202.3 84.0 41.2 30.6 27.0 25.5 24.5 23.7 23.0 22.5 22.0 21.7 21.3 21.0 20.7 20.5 20.3 20.1 20.1 42.4 59.2 67.0 65.3 68.3 76.0 112.5 98.1 43.4 31.4 27.7 25.6 24.6 23.8 23.3 22.8 22.3 21.9 21.6 21.3 21.0 20.7 20.5 20.3 20.1 20.1 29.3 37.4 37.1 33.5 35.6 38.1 43.0 38.6 29.4 27.3 25.8 24.8 24.0 23.4 22.9 22.4 22.1 21.7 21.4 21.2 20.9 20.7 20.5 20.3 20.1 20.1 20.0 20.0 20.0 20.0 20.0 20.0 20.0 20.1 20.1 20.1 20.1 20.0 20.0 20.0 20.0 20.0 20.0 20.0 20.0 20.0 20.0 20.0 20.0 20.0 20.0 20.0 20.1 20.1 20.1 20.1 20.1 20.1 20.1 20.1 20.1 20.1 20.1 20.1 20.1 20.1 20.1 20.1 20.1 20.1 20.1 20.1 20.1 20.1 20.1 20.1 20.1 20.0 20.2 20.2 20.2 20.2 20.2 20.2 20.2 20.2 20.2 20.2 20.2 20.2 20.2 20.2 20.2 20.2 20.2 20.1 20.1 20.1 20.1 20.2 20.2 20.1 20.1 20.0 20.2 20.3 20.3 20.3 20.3 20.3 20.3 20.3 20.4 20.4 20.3 20.3 20.3 20.3 20.3 20.3 20.3 20.2 20.2 20.2 20.3 20.3 20.2 20.2 20.1 20.0 20.3 20.4 20.4 20.4 20.4 20.4 20.4 20.5 20.5 20.5 20.5 20.4 20.4 20.4 20.4 20.4 20.4 20.4 20.4 20.4 20.4 20.3 20.3 20.2 20.1 20.0 20.5 20.5 20.5 20.6 20.5 20.5 20.5 20.6 20.6 20.6 20.6 20.6 20.5 20.5 20.5 20.5 20.5 20.5 20.5 20.5 20.4 20.4 20.3 20.1 20.1 20.0 20.6 20.6 20.7 20.7 20.7 20.7 20.7 20.8 20.8 20.8 20.7 20.7 20.7 20.6 20.7 20.7 20.6 20.6 20.6 20.5 20.5 20.4 20.3 20.1 20.1 20.0 20.7 20.7 20.8 20.8 20.8 20.8 20.9 21.0 21.0 20.9 20.9 20.9 20.8 20.8 20.8 20.8 20.8 20.7 20.7 20.6 20.5 20.4 20.3 20.2 20.1 20.0 20.8 20.9 21.0 21.0 21.0 21.0 21.1 21.2 21.2 21.2 21.1 21.1 21.0 21.0 21.0 20.9 20.9 20.8 20.7 20.6 20.5 20.4 20.3 20.2 20.1 20.0 21.0 21.0 21.1 21.2 21.2 21.2 21.3 21.4 21.4 21.4 21.3 21.3 21.2 21.2 21.1 21.1 21.0 20.9 20.8 20.7 20.5 20.4 20.3 20.2 20.1 20.0 21.2 21.2 21.3 21.4 21.5 21.5 21.6 21.7 21.7 21.7 21.6 21.5 21.4 21.4 21.3 21.2 21.1 21.0 20.9 20.7 20.6 20.4 20.3 20.2 20.1 20.0 21.4 21.5 21.5 21.6 21.7 21.8 21.9 22.0 22.0 22.0 21.8 21.8 21.6 21.5 21.4 21.3 21.2 21.1 20.9 20.8 20.6 20.5 20.3 20.2 20.1 20.0 21.6 21.7 21.8 21.9 22.0 22.1 22.2 22.4 22.4 22.3 22.1 22.0 21.9 21.7 21.6 21.4 21.3 21.2 21.0 20.8 20.6 20.5 20.3 20.2 20.1 20.0 21.9 22.0 22.1 22.2 22.4 22.6 22.7 22.8 22.8 22.7 22.5 22.3 22.2 22.0 21.8 21.6 21.4 21.3 21.1 20.9 20.7 20.5 20.4 20.2 20.1 20.1 22.3 22.4 22.5 22.7 22.8 23.0 23.3 23.4 23.4 23.2 22.9 22.7 22.5 22.2 22.0 21.8 21.6 21.3 21.1 20.9 20.7 20.5 20.4 20.2 20.1 20.1 22.7 23.0 23.2 23.3 23.3 23.5 23.9 24.2 24.1 23.8 23.5 23.1 22.8 22.5 22.2 21.9 21.7 21.4 21.2 20.9 20.7 20.5 20.4 20.2 20.1 20.1 23.2 23.9 24.3 24.1 24.2 24.7 25.3 25.3 25.0 24.5 24.1 23.6 23.1 22.8 22.4 22.1 21.8 21.5 21.2 21.0 20.8 20.6 20.4 20.2 20.1 20.1 24.8 25.5 25.2 24.4 25.8 27.1 27.1 26.9 26.2 25.4 24.7 24.1 23.5 23.0 22.6 22.3 21.9 21.6 21.3 21.1 20.9 20.7 20.5 20.3 20.1 20.1 29.0 29.8 28.3 27.8 33.0 35.3 32.5 31.4 29.5 26.6 25.6 24.7 23.9 23.3 22.9 22.5 22.1 21.8 21.5 21.2 21.0 20.7 20.5 20.3 20.2 20.1 45.7 52.9 46.4 42.9 60.5 69.5 55.6 47.9 40.1 28.6 26.5 25.5 24.5 23.7 23.2 22.7 22.3 21.9 21.6 21.3 21.0 20.8 20.5 20.3 20.2 20.1 84.3 119.8 108.0 75.4 98.1 120.0 95.2 74.5 54.4 32.9 27.9 26.4 25.4 24.3 23.6 23.0 22.5 22.1 21.7 21.3 21.0 20.8 20.5 20.3 20.2 20.1 97.5 157.4 149.6 113.3 168.0 218.8 201.3 160.9 97.5 48.1 30.8 27.6 26.1 24.9 24.0 23.2 22.6 22.1 21.7 21.3 21.0 20.7 20.5 20.3 20.1 20.1 93.8 159.0 155.4 134.1 217.7 285.3 273.4 209.9 114.2 56.0 33.2 28.1 26.2 25.0 24.1 23.3 22.7 22.2 21.7 21.3 21.0 20.7 20.5 20.3 20.1 20.1 90.2 130.7 124.8 113.9 156.3 187.0 187.2 138.0 69.8 44.6 31.6 27.0 25.5 24.6 23.8 23.1 22.6 22.1 21.7 21.3 21.0 20.7 20.5 20.3 20.1 20.1 63.9 73.5 63.8 64.8 70.8 70.3 79.2 64.9 39.0 33.3 27.9 25.6 24.7 24.0 23.4 22.9 22.4 22.0 21.6 21.3 21.0 20.7 20.5 20.3 20.2 20.1 36.9 43.0 37.2 34.3 36.2 36.8 37.4 34.3 29.8 27.9 25.8 24.9 24.1 23.5 23.0 22.6 22.2 21.8 21.5 21.2 20.9 20.7 20.5 20.3 20.1 20.1 20.0 20.0 20.0 20.0 20.0 20.0 20.0 20.1 20.1 20.1 20.1 20.1 20.0 20.0 20.0 20.0 20.0 20.0 20.0 20.0 20.0 20.0 20.0 20.0 20.0 20.0 20.1 20.1 20.1 20.1 20.1 20.1 20.1 20.1 20.1 20.1 20.1 20.1 20.1 20.1 20.1 20.1 20.1 20.1 20.1 20.1 20.1 20.1 20.1 20.1 20.1 20.1 20.2 20.2 20.2 20.2 20.2 20.2 20.2 20.2 20.2 20.2 20.2 20.2 20.2 20.2 20.2 20.2 20.2 20.2 20.2 20.2 20.1 20.2 20.2 20.2 20.1 20.0 20.3 20.3 20.3 20.3 20.3 20.3 20.3 20.3 20.4 20.4 20.4 20.3 20.3 20.3 20.3 20.3 20.3 20.3 20.3 20.3 20.3 20.3 20.3 20.2 20.1 20.0 20.4 20.4 20.4 20.4 20.4 20.4 20.4 20.5 20.5 20.5 20.5 20.5 20.4 20.4 20.4 20.4 20.4 20.4 20.4 20.4 20.4 20.4 20.3 20.2 20.1 20.0 20.5 20.5 20.5 20.6 20.5 20.5 20.6 20.6 20.7 20.6 20.7 20.7 20.6 20.6 20.6 20.6 20.6 20.5 20.5 20.5 20.5 20.4 20.3 20.2 20.1 20.0 20.6 20.6 20.7 20.7 20.7 20.7 20.7 20.8 20.8 20.8 20.8 20.8 20.8 20.7 20.8 20.8 20.7 20.7 20.7 20.6 20.5 20.4 20.3 20.2 20.1 20.0 20.7 20.8 20.8 20.8 20.8 20.8 20.9 21.0 21.0 21.0 21.0 21.0 21.0 20.9 20.9 20.9 20.8 20.8 20.7 20.7 20.5 20.4 20.3 20.2 20.1 20.0 20.8 20.9 21.0 21.0 21.0 21.0 21.1 21.1 21.2 21.2 21.2 21.2 21.2 21.1 21.1 21.0 21.0 20.9 20.8 20.7 20.6 20.4 20.3 20.2 20.1 20.0 21.0 21.0 21.1 21.2 21.2 21.2 21.3 21.4 21.5 21.5 21.5 21.5 21.4 21.3 21.2 21.1 21.1 21.0 20.9 20.7 20.6 20.4 20.3 20.2 20.1 20.0 21.2 21.3 21.3 21.4 21.4 21.5 21.6 21.7 21.8 21.8 21.8 21.7 21.6 21.5 21.4 21.3 21.2 21.1 20.9 20.8 20.6 20.5 20.3 20.2 20.1 20.0 21.5 21.5 21.6 21.6 21.7 21.8 21.9 22.0 22.1 22.1 22.0 21.9 21.8 21.6 21.5 21.4 21.3 21.2 21.0 20.8 20.7 20.5 20.3 20.2 20.1 20.0 21.8 21.8 21.9 21.9 22.0 22.1 22.2 22.4 22.5 22.5 22.3 22.1 22.0 21.8 21.7 21.5 21.4 21.3 21.1 20.9 20.7 20.5 20.3 20.2 20.1 20.0 22.0 22.2 22.2 22.3 22.4 22.5 22.7 22.9 22.9 22.9 22.6 22.4 22.2 22.0 21.9 21.7 21.6 21.4 21.1 20.9 20.7 20.5 20.4 20.2 20.1 20.0 22.3 22.5 22.6 22.6 22.8 23.0 23.2 23.4 23.4 23.3 23.0 22.8 22.5 22.3 22.1 21.9 21.7 21.4 21.2 20.9 20.7 20.5 20.4 20.2 20.1 20.1 22.8 23.1 23.1 23.1 23.2 23.4 23.8 24.1 24.1 23.8 23.5 23.1 22.8 22.6 22.3 22.1 21.8 21.5 21.2 21.0 20.7 20.5 20.4 20.2 20.1 20.1 23.6 24.0 24.1 23.9 23.9 24.2 24.8 25.2 25.0 24.5 24.1 23.6 23.2 22.9 22.6 22.3 21.9 21.6 21.3 21.0 20.8 20.6 20.4 20.2 20.1 20.1 25.8 26.4 25.5 24.8 26.0 26.0 26.1 26.6 26.3 25.4 24.7 24.1 23.6 23.3 22.9 22.5 22.1 21.7 21.4 21.1 20.9 20.6 20.4 20.3 20.1 20.1 31.8 31.4 28.8 29.5 34.0 32.3 29.4 28.6 28.1 26.6 25.6 24.8 24.1 23.6 23.2 22.7 22.2 21.8 21.5 21.2 21.0 20.7 20.5 20.3 20.1 20.1 44.6 48.4 45.3 52.2 66.5 60.9 44.2 34.4 32.5 28.6 26.7 25.5 24.7 24.1 23.5 22.9 22.4 22.0 21.6 21.3 21.0 20.8 20.5 20.3 20.2 20.1 91.7 107.1 79.6 75.3 103.0 95.4 70.9 63.5 55.3 35.2 28.3 26.2 25.3 24.5 23.8 23.2 22.6 22.1 21.8 21.4 21.1 20.8 20.5 20.3 20.1 20.1 118.9 151.6 120.6 135.1 182.3 173.2 155.2 144.2 103.9 50.8 31.1 27.2 25.9 25.0 24.2 23.4 22.7 22.2 21.8 21.4 21.0 20.7 20.5 20.3 20.1 20.1 116.7 160.6 146.2 188.2 249.0 237.2 205.3 162.5 111.3 60.4 34.5 28.0 26.0 25.0 24.2 23.4 22.7 22.2 21.8 21.4 21.0 20.7 20.4 20.3 20.1 20.1 115.3 137.9 115.2 137.8 174.4 163.6 128.9 90.3 72.0 52.8 33.7 27.4 25.5 24.6 23.9 23.2 22.7 22.1 21.7 21.3 21.0 20.7 20.5 20.3 20.1 20.1 83.8 86.0 65.5 66.8 72.3 67.2 55.0 45.5 45.6 40.2 29.4 26.0 25.0 24.2 23.6 23.0 22.5 22.0 21.6 21.3 21.0 20.7 20.5 20.3 20.1 20.1 44.9 53.0 46.7 38.7 36.4 36.4 34.2 32.2 32.6 30.6 26.5 25.2 24.6 23.9 23.3 22.7 22.3 21.9 21.5 21.2 20.9 20.7 20.5 20.3 20.1 20.1 20.0 20.0 20.0 20.0 20.1 20.1 20.0 20.1 20.1 20.1 20.1 20.1 20.0 20.0 20.0 20.0 20.0 20.0 20.0 20.0 20.1 20.1 20.1 20.1 20.1 20.1 20.1 20.1 20.1 20.1 20.1 20.1 20.1 20.1 20.1 20.1 20.1 20.1 20.1 20.1 20.1 20.1 20.1 20.1 20.1 20.1 20.1 20.1 20.1 20.1 20.1 20.1 20.2 20.2 20.2 20.2 20.2 20.2 20.2 20.2 20.2 20.2 20.2 20.2 20.2 20.2 20.2 20.2 20.2 20.2 20.2 20.2 20.2 20.2 20.2 20.2 20.1 20.1 20.3 20.3 20.3 20.3 20.3 20.3 20.4 20.4 20.4 20.4 20.4 20.3 20.3 20.3 20.3 20.3 20.3 20.3 20.3 20.3 20.3 20.4 20.3 20.2 20.1 20.0 20.4 20.4 20.4 20.4 20.5 20.5 20.5 20.5 20.5 20.5 20.6 20.6 20.5 20.4 20.4 20.5 20.4 20.5 20.5 20.5 20.5 20.5 20.4 20.2 20.1 20.0 20.5 20.5 20.5 20.6 20.6 20.6 20.7 20.7 20.7 20.7 20.8 20.8 20.7 20.6 20.7 20.7 20.6 20.6 20.6 20.6 20.6 20.5 20.3 20.2 20.1 20.0 20.6 20.6 20.7 20.7 20.7 20.8 20.8 20.9 20.9 21.0 21.0 21.0 21.0 20.9 20.9 20.9 20.8 20.8 20.7 20.7 20.6 20.5 20.3 20.2 20.1 20.0 20.7 20.8 20.8 20.8 20.9 20.9 21.0 21.1 21.1 21.2 21.2 21.3 21.2 21.1 21.1 21.0 21.0 20.9 20.8 20.7 20.6 20.5 20.3 20.2 20.1 20.0 20.9 20.9 21.0 21.0 21.1 21.1 21.2 21.3 21.3 21.4 21.5 21.5 21.4 21.3 21.2 21.2 21.1 21.0 20.9 20.8 20.6 20.5 20.3 20.2 20.1 20.0 21.0 21.1 21.1 21.2 21.3 21.3 21.4 21.5 21.5 21.6 21.7 21.7 21.6 21.5 21.4 21.3 21.2 21.1 21.0 20.8 20.7 20.5 20.3 20.2 20.1 20.0 21.3 21.3 21.3 21.4 21.5 21.5 21.7 21.8 21.9 22.0 22.0 21.9 21.7 21.6 21.5 21.4 21.3 21.2 21.0 20.9 20.7 20.5 20.3 20.2 20.1 20.0 21.6 21.6 21.6 21.7 21.8 21.8 22.0 22.2 22.3 22.3 22.2 22.1 21.9 21.8 21.6 21.5 21.4 21.3 21.1 21.0 20.8 20.5 20.3 20.2 20.1 20.0 21.9 22.0 22.0 22.0 22.1 22.1 22.4 22.6 22.7 22.7 22.5 22.3 22.1 21.9 21.8 21.7 21.5 21.4 21.2 21.0 20.8 20.5 20.3 20.2 20.1 20.0 22.2 22.3 22.3 22.4 22.4 22.5 22.8 23.1 23.1 23.0 22.7 22.5 22.3 22.1 22.0 21.8 21.7 21.5 21.3 21.0 20.7 20.5 20.3 20.2 20.1 20.0 22.4 22.6 22.7 22.7 22.8 22.9 23.3 23.6 23.6 23.4 23.1 22.8 22.6 22.4 22.2 22.0 21.8 21.6 21.3 21.0 20.8 20.5 20.3 20.2 20.1 20.0 22.9 23.1 23.1 23.1 23.2 23.4 23.8 24.2 24.2 23.8 23.5 23.2 22.9 22.6 22.4 22.2 21.9 21.7 21.4 21.1 20.8 20.5 20.4 20.2 20.1 20.0 24.1 24.2 24.1 23.8 23.8 24.1 24.8 25.3 25.0 24.4 24.0 23.6 23.3 23.0 22.7 22.4 22.1 21.8 21.5 21.2 20.8 20.6 20.4 20.2 20.1 20.1 26.8 27.6 26.9 24.9 24.6 25.0 25.7 26.2 26.1 25.4 24.7 24.2 23.8 23.4 23.0 22.6 22.2 21.9 21.5 21.2 20.9 20.6 20.4 20.3 20.1 20.1 34.1 33.3 32.1 28.3 27.5 27.2 26.9 27.0 27.2 26.5 25.6 24.8 24.3 23.8 23.3 22.8 22.3 21.9 21.6 21.3 21.0 20