<?xml version="1.0"?>
<VTKFile type="ImageData" version="1.0" byte_order="LittleEndian" header_type="UInt64">
<ImageData WholeExtent="0 25 25 50 1 1"
 Origin="0.0000 15.0000 0.0000" Spacing="0.6000 0.6000 0.6000">
<Piece Extent="0 25 25 50 1 1">
<PointData>
<DataArray Name="TEMPERATURE" NumberOfComponents="1" type="Float32" format="ascii">
26.9 27.9 28.0 27.8 27.2 26.3 26.1 26.1 26.1 25.8 25.8 26.4 27.5 29.6 34.0 37.4 36.5 33.7 34.0 36.4 39.1 45.2 52.4 52.2 54.5 53.0 24.8 26.7 28.0 27.8 27.2 26.2 25.9 25.8 25.6 25.4 25.5 26.2 27.6 30.7 35.8 38.6 37.1 35.1 37.3 42.8 44.4 43.8 47.6 49.6 46.3 51.0 23.6 25.9 28.1 27.9 27.3 26.5 26.2 25.9 25.4 25.2 25.6 26.2 27.5 30.8 36.0 38.6 37.4 36.1 39.7 48.3 52.8 48.3 42.7 41.5 40.9 42.3 24.2 26.2 28.0 27.9 27.6 27.2 26.9 26.4 25.6 25.8 26.8 27.5 28.0 30.4 35.2 38.2 37.5 36.0 38.2 45.7 53.4 54.5 48.1 40.0 37.2 41.4 26.3 27.5 28.2 28.0 28.0 27.6 27.0 26.7 26.5 27.5 29.3 29.9 29.3 29.9 33.4 36.9 37.3 35.5 34.7 37.9 45.0 51.2 49.6 41.6 36.0 38.2 27.7 28.5 28.6 28.3 28.1 27.4 26.7 26.8 27.5 29.3 31.6 32.1 30.8 30.2 32.2 35.8 37.3 35.6 33.0 32.9 37.1 42.5 42.4 39.1 36.5 36.5 27.6 28.8 29.3 28.9 28.6 27.4 26.6 26.5 27.4 29.6 32.1 32.7 31.6 30.8 32.1 35.5 37.5 36.4 33.8 32.2 33.9 37.7 39.1 39.4 40.2 40.5 27.6 29.2 30.4 30.3 29.7 28.0 26.6 26.0 26.6 28.5 30.5 31.8 31.6 31.2 32.4 35.0 37.1 37.3 35.9 33.4 32.7 35.5 39.2 42.3 45.8 49.3 28.1 29.8 31.4 31.7 31.1 29.1 27.3 26.2 26.5 27.6 28.9 30.4 31.2 31.7 32.7 33.9 35.5 37.1 37.9 35.9 33.1 33.8 37.1 41.5 47.4 55.0 27.9 29.6 31.1 31.5 31.4 30.3 29.0 27.7 27.5 27.9 29.0 30.4 31.5 32.5 33.2 32.9 33.0 35.2 38.8 39.4 36.5 34.7 34.6 36.4 41.6 50.4 26.8 28.8 30.0 29.9 30.1 29.8 29.6 28.8 28.6 28.9 30.1 31.6 32.4 33.2 33.8 33.2 32.3 34.1 38.7 41.3 40.4 38.7 36.6 34.0 34.7 39.4 26.0 28.3 29.3 28.6 28.5 28.4 29.0 29.3 29.2 29.0 29.8 31.6 32.5 32.8 33.1 33.3 33.2 34.7 37.9 40.2 40.4 40.5 40.6 37.5 34.1 33.4 25.1 27.7 28.8 27.6 27.5 27.7 29.0 29.8 29.5 28.6 28.9 30.8 32.3 32.4 32.1 32.5 33.6 35.1 36.9 37.9 37.5 37.4 40.1 41.8 39.6 36.5 24.0 26.6 28.0 27.1 27.1 28.1 30.2 31.0 30.3 29.0 29.1 31.3 33.6 33.9 32.9 32.7 33.7 35.0 36.0 36.4 35.4 34.1 36.4 42.5 45.3 43.7 23.5 25.6 27.0 26.8 27.3 28.8 31.9 33.2 32.0 30.4 30.4 32.7 35.6 36.4 35.6 34.9 35.1 35.2 35.3 35.2 34.2 32.7 33.3 39.2 45.4 47.7 23.4 25.2 26.5 26.8 27.8 29.9 33.6 35.6 34.2 32.1 31.6 33.2 35.6 36.9 36.7 36.5 36.9 36.8 36.2 35.4 34.6 33.6 32.4 34.9 41.0 45.7 23.2 24.7 26.1 26.5 27.7 29.9 33.6 36.8 36.2 33.6 32.0 32.4 33.9 35.2 35.3 35.5 36.6 37.5 37.7 37.1 36.2 35.5 33.8 32.7 35.7 40.4 23.1 24.3 25.8 26.3 27.3 28.5 31.6 35.8 36.9 34.8 32.1 31.1 31.5 32.4 32.9 33.4 34.4 36.0 38.1 38.8 37.9 37.1 36.2 34.0 33.9 36.4 22.8 24.1 25.7 26.4 27.1 27.6 29.2 32.7 35.1 34.4 32.0 30.1 29.3 29.3 30.0 30.8 31.5 32.9 35.8 38.8 39.1 38.5 38.4 36.6 35.2 36.3 23.5 24.6 26.1 26.9 27.3 27.1 27.2 29.2 31.4 31.8 30.3 28.6 28.1 28.3 28.9 29.6 29.7 30.0 32.7 37.3 39.9 40.0 39.6 38.0 36.8 38.5 24.2 25.1 26.5 27.3 27.5 27.0 26.8 27.1 28.1 28.4 27.8 27.1 27.3 28.2 29.2 29.8 29.2 28.3 29.5 34.3 39.4 41.3 40.8 39.1 38.3 40.6 24.9 25.5 26.4 27.0 27.2 27.0 26.8 26.5 26.9 27.2 27.5 27.9 28.5 29.3 30.0 30.1 28.9 27.2 27.0 30.6 37.0 41.3 41.8 40.1 38.2 39.0 25.6 26.3 26.7 26.6 26.4 26.2 26.1 26.1 26.5 26.9 27.7 28.6 29.8 30.6 31.1 30.5 28.8 26.9 26.1 27.9 33.2 39.5 42.5 41.5 37.8 35.2 26.1 27.1 27.2 26.3 25.7 25.4 25.3 25.5 26.2 27.1 28.3 29.5 30.9 31.7 31.8 30.6 28.7 27.1 26.3 26.6 29.3 35.3 40.8 42.3 39.0 34.7 26.5 27.3 27.0 25.7 24.6 24.3 24.2 24.2 24.7 25.7 26.9 28.0 29.2 30.2 30.6 29.7 28.0 26.3 26.0 26.3 26.7 29.0 34.1 38.7 38.4 34.8 25.9 26.6 26.3 25.0 23.8 23.3 23.1 22.9 22.9 23.5 24.4 25.0 26.0 27.4 28.6 28.8 27.5 25.3 24.9 25.5 25.5 25.5 29.2 35.4 36.8 33.6 
</DataArray>
</PointData>
</Piece>
</ImageData>
</VTKFile>
