<?xml version="1.0"?>
<VTKFile type="ImageData" version="1.0" byte_order="LittleEndian" header_type="UInt64">
<ImageData WholeExtent="0 25 25 50 1 1"
 Origin="0.0000 15.0000 0.0000" Spacing="0.6000 0.6000 0.6000">
<Piece Extent="0 25 25 50 1 1">
<PointData>
<DataArray Name="TEMPERATURE" NumberOfComponents="1" type="Float32" format="ascii">
22.8 24.0 25.5 28.0 32.0 34.8 34.8 33.4 31.8 32.7 35.9 37.0 33.9 30.3 29.8 31.6 35.1 38.7 42.4 41.7 37.3 38.3 44.9 49.5 64.3 69.7 21.9 23.4 24.9 25.9 27.8 29.9 30.9 31.0 30.9 33.1 37.8 38.9 33.0 27.2 27.2 30.1 32.8 34.9 37.9 39.7 39.0 39.5 42.9 46.3 56.1 78.9 21.5 22.9 24.0 24.3 25.0 26.4 28.0 28.8 29.8 34.1 40.6 40.9 33.3 28.2 30.0 32.7 33.7 33.3 33.1 34.4 36.7 38.9 39.1 39.0 43.0 58.9 21.4 22.4 23.2 23.2 23.6 24.8 26.4 27.3 28.9 34.4 41.8 42.7 36.2 33.4 37.0 38.4 36.7 34.4 31.9 30.7 32.8 36.1 35.8 33.9 35.8 46.6 21.3 22.1 22.8 22.7 23.2 24.4 25.5 26.2 28.2 34.4 42.1 44.4 40.4 39.6 44.3 44.5 40.6 37.0 32.9 30.0 30.6 33.1 33.4 32.2 34.8 43.9 21.1 22.0 22.7 22.8 23.5 24.5 25.2 25.6 27.7 33.7 41.3 44.7 42.9 42.8 47.0 46.7 41.7 36.8 32.4 30.3 31.4 32.9 32.6 31.0 32.8 40.3 21.1 22.1 22.9 23.2 24.1 25.0 25.4 25.6 26.9 30.9 37.0 41.7 42.3 42.1 44.6 44.8 40.5 35.4 33.3 35.0 37.4 36.6 34.0 32.1 32.0 35.1 21.3 22.3 23.3 24.0 25.0 25.7 26.0 26.0 26.6 28.9 32.8 36.7 38.7 39.1 39.7 39.9 38.5 36.8 38.3 42.2 46.0 45.2 40.5 38.0 36.1 34.2 21.7 22.7 23.9 24.7 25.7 26.3 26.4 26.3 26.8 28.8 32.1 35.2 37.4 38.6 38.2 36.9 36.8 39.2 43.7 46.8 50.5 54.1 52.1 47.6 43.5 39.3 22.2 23.2 24.6 25.6 26.3 26.7 26.6 26.4 27.1 29.6 33.2 36.0 38.6 41.4 42.1 39.8 38.5 42.7 48.7 51.3 53.9 59.0 60.5 55.8 51.1 47.9 22.8 23.8 25.3 26.5 27.0 26.9 26.6 26.4 27.1 29.6 32.8 34.7 36.9 41.4 44.7 44.1 43.2 47.3 53.4 58.1 62.0 64.5 64.4 60.4 56.4 53.9 23.5 24.8 26.5 27.5 27.6 27.1 26.6 26.3 26.6 28.3 30.5 31.8 33.1 36.5 41.2 44.3 46.3 49.7 54.4 59.8 65.4 67.8 65.6 60.7 57.1 54.4 23.8 25.2 27.1 28.2 28.1 27.4 26.8 26.2 26.1 26.7 27.6 28.4 29.3 30.9 34.2 39.1 44.0 47.6 49.6 51.1 54.4 58.2 57.3 54.7 54.4 53.4 24.3 25.6 27.4 28.7 28.5 27.5 26.9 26.0 25.5 25.3 25.3 25.5 26.2 27.7 29.7 33.2 38.3 42.1 42.4 40.2 39.2 40.8 42.1 44.7 48.7 50.9 23.9 25.7 27.4 28.5 28.4 27.4 26.8 25.8 25.2 24.7 24.5 24.3 24.7 26.3 28.4 30.4 33.1 35.9 36.7 35.2 32.8 31.5 33.1 38.5 43.8 47.3 23.4 25.3 27.0 27.9 28.1 27.2 26.6 25.8 25.4 25.1 24.9 24.7 25.0 26.4 28.3 30.0 31.5 33.2 34.4 34.3 32.7 31.1 32.5 38.6 44.5 46.9 23.4 25.1 26.6 27.3 27.5 26.8 26.4 26.2 26.3 26.0 25.6 25.3 25.6 26.8 28.3 29.5 30.4 31.6 33.0 33.9 33.4 32.0 32.9 38.9 46.1 47.5 23.8 25.1 26.1 26.5 27.0 26.8 27.1 27.5 27.5 26.8 25.9 25.6 25.8 26.7 27.9 28.6 29.0 29.9 31.6 33.5 34.1 33.0 32.4 36.4 43.6 44.9 24.1 25.2 25.9 26.0 26.6 27.0 28.3 29.1 28.5 27.2 25.9 25.6 25.8 26.4 27.3 27.8 28.2 28.9 30.4 32.7 34.2 33.6 31.9 32.4 36.5 37.6 24.4 25.6 26.2 26.3 27.2 28.1 29.5 29.9 28.6 27.0 25.8 25.6 26.0 26.4 27.0 27.2 27.2 27.7 29.2 31.4 33.0 33.0 31.1 29.2 30.1 31.1 24.2 25.6 26.6 27.0 28.3 29.4 30.1 29.6 27.7 26.1 25.6 25.7 26.0 26.4 27.0 27.3 26.9 27.0 28.5 30.4 31.5 31.5 30.1 28.3 28.4 29.6 24.5 26.3 28.1 28.5 29.2 29.7 29.4 28.2 26.7 25.7 25.9 26.5 27.0 27.2 27.4 27.4 26.8 26.7 27.8 29.4 30.4 30.3 29.4 28.5 29.1 30.2 24.2 26.6 29.0 29.5 29.6 29.4 28.5 27.1 26.1 25.7 26.3 27.0 27.4 27.7 27.8 27.3 26.3 26.1 26.8 27.9 28.6 28.8 28.6 28.4 29.3 30.0 23.3 25.9 28.7 29.7 29.7 29.1 28.0 26.7 25.9 25.8 26.5 27.5 28.2 28.6 28.8 28.0 26.2 25.3 25.8 26.8 27.6 28.2 28.4 28.4 29.1 29.6 22.6 24.6 26.9 28.0 28.2 28.1 26.9 25.3 24.8 24.4 24.9 26.1 27.4 27.7 27.7 27.4 26.6 25.4 25.0 25.1 25.6 27.1 28.5 28.9 29.4 30.2 21.3 22.8 24.6 25.9 26.3 26.9 25.9 24.1 23.7 23.0 22.9 23.8 25.1 25.3 25.1 25.6 26.2 25.4 24.2 23.4 23.4 25.4 27.8 28.7 29.2 30.5 
</DataArray>
</PointData>
</Piece>
</ImageData>
</VTKFile>
