<?xml version="1.0"?>
<VTKFile type="PolyData" version="1.0" byte_order="LittleEndian" header_type="UInt64">
<PolyData>
<Piece NumberOfPoints="2" NumberOfVerts="0" NumberOfLines="0" NumberOfPolys="0">
    <Points>
        <DataArray type="Float32" NumberOfComponents="3" format="ascii">
        5.0000 2.0000 1.8000 12.9560 11.5472 1.8000 
        </DataArray>
    </Points>
    <PointData>
        <DataArray type="Float32" Name="tag" format="ascii">
            9.0000 13.0000 
         </DataArray>
        <DataArray type="Float32" Name="PARTICLE TEMPERATURE(C)" format="ascii">
            21.5023 65.5934 
         </DataArray>
        <DataArray type="Float32" Name="PARTICLE DIAMETER(mu-m)" format="ascii">
            20000.0000 20000.0000 
         </DataArray>
        <DataArray type="Float32" Name="PARTICLE AGE(s)" format="ascii">
            53.0321 53.0321 
         </DataArray>
    </PointData>
</Piece>
</PolyData>
</VTKFile>