<?xml version="1.0"?>
<VTKFile type="PolyData" version="1.0" byte_order="LittleEndian" header_type="UInt64">
<PolyData>
<Piece NumberOfPoints="1212" NumberOfVerts="0" NumberOfLines="0" NumberOfPolys="600">
    <Points>
        <DataArray type="Float32" NumberOfComponents="3" format="ascii">
        7.3 10.0 1.8 7.8 10.0 1.7 7.8 10.0 1.8 7.3 10.0 1.8 7.3 10.2 1.8 7.8 10.2 1.7 7.8 10.0 1.7 7.8 10.0 1.8 7.8 10.0 1.7 8.4 10.0 1.5 8.4 10.0 1.6 8.4 10.0 1.8 7.8 10.0 1.7 7.8 10.2 1.7 8.4 10.2 1.5 8.4 10.0 1.5 8.4 10.0 1.5 8.4 10.2 1.5 8.4 10.2 1.6 8.4 10.0 1.6 8.4 10.0 1.8 8.4 10.0 1.6 8.4 10.0 1.8 8.4 10.0 1.6 8.4 10.2 1.6 8.4 10.2 1.8 8.4 10.0 1.8 7.3 10.2 1.8 7.3 10.8 1.8 7.8 10.8 1.7 7.8 10.2 1.7 7.8 10.2 1.7 7.8 10.8 1.7 8.4 10.8 1.5 8.4 10.2 1.5 8.4 10.2 1.5 8.4 10.8 1.5 8.4 10.8 1.6 8.4 10.2 1.6 8.4 10.2 1.6 8.4 10.8 1.6 8.4 10.8 1.8 8.4 10.2 1.8 7.3 10.8 1.8 7.3 11.4 1.8 7.8 11.4 1.7 7.8 10.8 1.7 7.8 10.8 1.7 7.8 11.4 1.7 8.4 11.4 1.5 8.4 10.8 1.5 8.4 10.8 1.5 8.4 11.4 1.5 8.4 11.4 1.6 8.4 10.8 1.6 8.4 10.8 1.6 8.4 11.4 1.6 8.4 11.4 1.8 8.4 10.8 1.8 7.3 11.4 1.8 7.3 12.0 1.8 7.8 12.0 1.7 7.8 11.4 1.7 7.8 11.4 1.7 7.8 12.0 1.7 8.4 12.0 1.5 8.4 11.4 1.5 8.4 11.4 1.5 8.4 12.0 1.5 8.4 12.0 1.6 8.4 11.4 1.6 8.4 11.4 1.6 8.4 12.0 1.6 8.4 12.0 1.8 8.4 11.4 1.8 7.3 12.0 1.8 7.3 12.6 1.8 7.8 12.6 1.7 7.8 12.0 1.7 7.8 12.0 1.7 7.8 12.6 1.7 8.4 12.6 1.5 8.4 12.0 1.5 8.4 12.0 1.5 8.4 12.6 1.5 8.4 12.6 1.6 8.4 12.0 1.6 8.4 12.0 1.6 8.4 12.6 1.6 8.4 12.6 1.8 8.4 12.0 1.8 7.3 12.6 1.8 7.3 12.9 1.8 7.6 13.2 1.7 7.8 13.2 1.7 7.8 12.6 1.7 7.3 12.9 1.8 7.3 13.2 1.8 7.6 13.2 1.7 7.8 12.6 1.7 7.8 13.2 1.7 8.4 13.2 1.5 8.4 12.6 1.5 8.4 12.6 1.5 8.4 13.2 1.5 8.4 13.2 1.6 8.4 12.6 1.6 8.4 12.6 1.6 8.4 13.2 1.6 8.4 13.2 1.7 8.4 12.8 1.8 8.4 12.6 1.8 8.4 12.8 1.8 8.4 13.2 1.7 8.4 13.2 1.8 7.6 13.2 1.7 7.8 13.4 1.7 7.8 13.2 1.7 7.6 13.2 1.7 7.3 13.2 1.8 7.3 13.8 1.8 7.8 13.8 1.7 7.8 13.4 1.7 7.8 13.2 1.7 7.8 13.4 1.7 8.2 13.8 1.6 8.4 13.8 1.5 8.4 13.2 1.5 7.8 13.4 1.7 7.8 13.8 1.7 8.2 13.8 1.6 8.4 13.2 1.5 8.4 13.8 1.5 8.4 13.8 1.6 8.4 13.5 1.6 8.4 13.2 1.6 8.4 13.8 1.6 8.4 13.8 1.6 8.4 13.5 1.6 8.4 13.2 1.6 8.4 13.5 1.6 8.4 13.2 1.7 8.4 13.5 1.6 8.4 13.8 1.6 8.4 13.8 1.8 8.4 13.2 1.8 8.4 13.2 1.7 7.3 13.8 1.8 7.3 14.0 1.8 7.8 14.0 1.7 7.8 13.8 1.7 7.3 14.0 1.8 7.8 14.0 1.8 7.8 14.0 1.7 7.8 13.8 1.7 7.8 14.0 1.7 8.4 14.0 1.5 8.2 13.8 1.6 7.8 14.0 1.7 7.8 14.0 1.8 8.4 14.0 1.8 8.4 14.0 1.6 8.4 14.0 1.5 8.4 13.8 1.6 8.4 14.0 1.5 8.4 14.0 1.6 8.4 13.8 1.6 8.4 13.8 1.5 8.2 13.8 1.6 8.4 14.0 1.5 8.4 13.8 1.6 8.4 13.8 1.5 8.4 14.0 1.5 8.4 13.8 1.6 8.4 14.0 1.6 8.4 14.0 1.8 8.4 13.8 1.8 8.4 14.0 1.6 8.4 14.0 1.8 8.4 14.0 1.8 5.1 10.0 2.4 5.4 10.0 2.3 5.4 10.0 2.4 5.1 10.0 2.4 5.1 10.2 2.4 5.4 10.2 2.3 5.4 10.0 2.3 5.4 10.0 2.4 5.4 10.0 2.3 6.0 10.0 2.2 6.0 10.0 2.4 5.4 10.0 2.3 5.4 10.2 2.3 6.0 10.2 2.2 6.0 10.0 2.2 6.0 10.0 2.4 6.0 10.0 2.2 6.6 10.0 2.0 6.6 10.0 2.4 6.0 10.0 2.2 6.0 10.2 2.2 6.6 10.2 2.0 6.6 10.0 2.0 6.6 10.0 2.4 6.6 10.0 2.0 7.2 10.0 1.8 7.2 10.0 2.4 6.6 10.0 2.0 6.6 10.2 2.0 7.2 10.2 1.8 7.2 10.0 1.8 7.2 10.0 2.4 7.2 10.0 1.8 7.3 10.0 1.8 7.8 10.0 1.8 7.8 10.0 2.4 7.2 10.0 1.8 7.2 10.2 1.8 7.3 10.2 1.8 7.3 10.0 1.8 7.8 10.0 2.4 7.8 10.0 1.8 8.4 10.0 1.8 8.4 10.0 2.4 8.4 10.0 2.4 8.4 10.0 1.8 8.4 10.0 1.8 8.6 10.0 2.4 8.6 10.0 2.4 8.4 10.0 1.8 8.4 10.2 1.8 8.6 10.2 2.4 5.1 10.2 2.4 5.1 10.6 2.4 5.3 10.8 2.3 5.4 10.8 2.3 5.4 10.2 2.3 5.1 10.6 2.4 5.1 10.8 2.4 5.3 10.8 2.3 5.4 10.2 2.3 5.4 10.8 2.3 6.0 10.8 2.2 6.0 10.2 2.2 6.0 10.2 2.2 6.0 10.8 2.2 6.6 10.8 2.0 6.6 10.2 2.0 6.6 10.2 2.0 6.6 10.8 2.0 7.2 10.8 1.8 7.2 10.2 1.8 7.2 10.2 1.8 7.2 10.8 1.8 7.3 10.8 1.8 7.3 10.2 1.8 8.6 10.2 2.4 8.4 10.2 1.8 8.4 10.8 1.8 8.6 10.8 2.3 8.6 10.3 2.4 8.6 10.3 2.4 8.6 10.8 2.3 8.6 10.8 2.4 5.3 10.8 2.3 5.4 10.9 2.3 5.4 10.8 2.3 5.3 10.8 2.3 5.1 10.8 2.4 5.1 11.4 2.4 5.4 11.4 2.3 5.4 10.9 2.3 5.4 10.8 2.3 5.4 10.9 2.3 5.9 11.4 2.2 6.0 11.4 2.2 6.0 10.8 2.2 5.4 10.9 2.3 5.4 11.4 2.3 5.9 11.4 2.2 6.0 10.8 2.2 6.0 11.4 2.2 6.6 11.4 2.0 6.6 10.8 2.0 6.6 10.8 2.0 6.6 11.4 2.0 7.2 11.4 1.8 7.2 10.8 1.8 7.2 10.8 1.8 7.2 11.4 1.8 7.3 11.4 1.8 7.3 10.8 1.8 8.6 10.8 2.3 8.4 10.8 1.8 8.4 11.4 1.8 8.5 11.4 2.1 8.6 10.8 2.4 8.6 10.8 2.3 8.5 11.4 2.1 8.6 11.4 2.4 5.1 11.4 2.4 5.1 12.0 2.4 5.4 12.0 2.3 5.4 11.4 2.3 5.4 11.4 2.3 5.4 12.0 2.3 6.0 12.0 2.2 6.0 11.5 2.2 5.9 11.4 2.2 5.9 11.4 2.2 6.0 11.5 2.2 6.0 11.4 2.2 6.0 11.4 2.2 6.0 11.5 2.2 6.4 12.0 2.0 6.6 12.0 2.0 6.6 11.4 2.0 6.0 11.5 2.2 6.0 12.0 2.2 6.4 12.0 2.0 6.6 11.4 2.0 6.6 12.0 2.0 7.2 12.0 1.8 7.2 11.4 1.8 7.2 11.4 1.8 7.2 12.0 1.8 7.3 12.0 1.8 7.3 11.4 1.8 8.5 11.4 2.1 8.4 11.4 1.8 8.4 12.0 1.8 8.5 12.0 2.0 8.6 11.4 2.4 8.5 11.4 2.1 8.5 12.0 2.0 8.6 12.0 2.4 5.1 12.0 2.4 5.1 12.6 2.4 5.4 12.6 2.3 5.4 12.0 2.3 5.4 12.0 2.3 5.4 12.6 2.3 6.0 12.6 2.2 6.0 12.0 2.2 6.0 12.0 2.2 6.0 12.6 2.2 6.6 12.6 2.0 6.6 12.2 2.0 6.4 12.0 2.0 6.4 12.0 2.0 6.6 12.2 2.0 6.6 12.0 2.0 6.6 12.0 2.0 6.6 12.2 2.0 7.0 12.6 1.9 7.2 12.6 1.8 7.2 12.0 1.8 6.6 12.2 2.0 6.6 12.6 2.0 7.0 12.6 1.9 7.2 12.0 1.8 7.2 12.6 1.8 7.3 12.6 1.8 7.3 12.0 1.8 8.5 12.0 2.0 8.4 12.0 1.8 8.4 12.6 1.8 8.5 12.6 1.9 8.6 12.0 2.4 8.5 12.0 2.0 8.5 12.6 1.9 8.6 12.6 2.4 5.1 12.6 2.4 5.1 13.2 2.4 5.4 13.2 2.3 5.4 12.6 2.3 5.4 12.6 2.3 5.4 13.2 2.3 6.0 13.2 2.2 6.0 12.6 2.2 6.0 12.6 2.2 6.0 13.2 2.2 6.6 13.2 2.0 6.6 12.6 2.0 6.6 12.6 2.0 6.6 13.2 2.0 7.2 13.2 1.8 7.2 12.8 1.8 7.0 12.6 1.9 7.0 12.6 1.9 7.2 12.8 1.8 7.2 12.6 1.8 7.2 12.6 1.8 7.2 12.8 1.8 7.3 12.9 1.8 7.3 12.6 1.8 7.2 12.8 1.8 7.2 13.2 1.8 7.3 13.2 1.8 7.3 12.9 1.8 8.5 12.6 1.9 8.4 12.6 1.8 8.4 12.8 1.8 8.6 12.6 2.4 8.5 12.6 1.9 8.4 12.8 1.8 8.4 13.2 1.8 8.6 13.2 2.4 5.1 13.2 2.4 5.1 13.8 2.4 5.4 13.8 2.3 5.4 13.2 2.3 5.4 13.2 2.3 5.4 13.8 2.3 6.0 13.8 2.2 6.0 13.2 2.2 6.0 13.2 2.2 6.0 13.8 2.2 6.6 13.8 2.0 6.6 13.2 2.0 6.6 13.2 2.0 6.6 13.8 2.0 7.2 13.8 1.8 7.2 13.2 1.8 7.2 13.2 1.8 7.2 13.8 1.8 7.3 13.8 1.8 7.3 13.2 1.8 8.6 13.2 2.4 8.4 13.2 1.8 8.4 13.8 1.8 8.6 13.8 2.4 5.1 13.8 2.4 5.1 14.0 2.4 5.4 14.0 2.3 5.4 13.8 2.3 5.1 14.0 2.4 5.4 14.0 2.4 5.4 14.0 2.3 5.4 13.8 2.3 5.4 14.0 2.3 6.0 14.0 2.2 6.0 13.8 2.2 5.4 14.0 2.3 5.4 14.0 2.4 6.0 14.0 2.4 6.0 14.0 2.2 6.0 13.8 2.2 6.0 14.0 2.2 6.6 14.0 2.0 6.6 13.8 2.0 6.0 14.0 2.2 6.0 14.0 2.4 6.6 14.0 2.4 6.6 14.0 2.0 6.6 13.8 2.0 6.6 14.0 2.0 7.2 14.0 1.8 7.2 13.8 1.8 6.6 14.0 2.0 6.6 14.0 2.4 7.2 14.0 2.4 7.2 14.0 1.8 7.2 13.8 1.8 7.2 14.0 1.8 7.3 14.0 1.8 7.3 13.8 1.8 7.2 14.0 1.8 7.2 14.0 2.4 7.8 14.0 2.4 7.8 14.0 1.8 7.3 14.0 1.8 7.8 14.0 1.8 7.8 14.0 2.4 8.4 14.0 2.4 8.4 14.0 1.8 8.4 14.0 1.8 8.4 14.0 2.4 8.6 14.0 2.4 8.4 14.0 1.8 8.6 13.8 2.4 8.4 13.8 1.8 8.4 14.0 1.8 8.6 14.0 2.4 4.5 10.0 2.6 4.8 10.0 2.5 4.8 10.0 2.5 4.5 10.0 2.6 4.7 10.2 2.5 4.8 10.2 2.5 4.8 10.0 2.5 4.6 10.0 3.0 4.5 10.0 2.6 4.8 10.0 2.5 4.8 10.0 3.0 4.5 10.0 2.6 4.5 10.2 2.6 4.7 10.2 2.5 4.5 10.0 2.6 4.6 10.0 3.0 4.6 10.2 3.0 4.5 10.2 2.6 4.8 10.0 2.5 4.8 10.0 2.5 5.1 10.0 2.4 5.4 10.0 2.4 5.4 10.0 2.5 4.8 10.0 2.5 4.8 10.2 2.5 5.1 10.2 2.4 5.1 10.0 2.4 4.8 10.0 3.0 4.8 10.0 2.5 5.4 10.0 2.5 5.4 10.0 3.0 5.4 10.0 2.5 5.4 10.0 2.4 6.0 10.0 2.4 6.0 10.0 2.5 5.4 10.0 3.0 5.4 10.0 2.5 6.0 10.0 2.5 6.0 10.0 3.0 6.0 10.0 2.5 6.0 10.0 2.4 6.6 10.0 2.4 6.6 10.0 2.5 6.0 10.0 3.0 6.0 10.0 2.5 6.6 10.0 2.5 6.6 10.0 3.0 6.6 10.0 2.5 6.6 10.0 2.4 7.2 10.0 2.4 7.2 10.0 2.5 6.6 10.0 3.0 6.6 10.0 2.5 7.2 10.0 2.5 7.2 10.0 2.9 6.7 10.0 3.0 6.7 10.2 3.0 6.7 10.0 3.0 7.2 10.0 2.9 7.2 10.2 2.9 7.2 10.0 2.5 7.2 10.0 2.4 7.8 10.0 2.4 7.8 10.0 2.5 7.2 10.0 2.9 7.2 10.0 2.5 7.8 10.0 2.5 7.8 10.0 2.7 7.2 10.2 2.9 7.2 10.0 2.9 7.8 10.0 2.7 7.8 10.2 2.7 7.8 10.0 2.5 7.8 10.0 2.4 8.4 10.0 2.4 8.4 10.0 2.5 7.8 10.0 2.7 7.8 10.0 2.5 8.4 10.0 2.5 8.4 10.0 2.5 7.8 10.2 2.7 7.8 10.0 2.7 8.4 10.0 2.5 8.4 10.2 2.5 8.4 10.0 2.5 8.4 10.0 2.4 8.6 10.0 2.4 8.6 10.0 2.5 8.4 10.0 2.5 8.4 10.0 2.5 8.6 10.0 2.5 8.4 10.2 2.5 8.4 10.0 2.5 8.6 10.0 2.5 8.6 10.2 2.5 8.6 10.0 2.5 8.6 10.0 2.4 8.6 10.2 2.4 8.6 10.2 2.4 8.6 10.0 2.5 8.6 10.2 2.4 8.6 10.2 2.5 4.7 10.2 2.5 4.8 10.3 2.5 4.8 10.2 2.5 4.7 10.2 2.5 4.5 10.2 2.6 4.5 10.8 2.6 4.8 10.8 2.5 4.8 10.3 2.5 4.5 10.2 2.6 4.6 10.2 3.0 4.6 10.8 3.0 4.5 10.8 2.6 4.8 10.2 2.5 4.8 10.3 2.5 5.1 10.6 2.4 5.1 10.2 2.4 4.8 10.3 2.5 4.8 10.8 2.5 5.1 10.8 2.4 5.1 10.6 2.4 6.7 10.8 3.0 6.7 10.2 3.0 7.2 10.2 2.9 7.2 10.8 2.9 7.2 10.8 2.9 7.2 10.2 2.9 7.8 10.2 2.7 7.8 10.8 2.7 7.8 10.8 2.7 7.8 10.2 2.7 8.4 10.2 2.5 8.4 10.8 2.5 8.4 10.8 2.5 8.4 10.2 2.5 8.6 10.2 2.5 8.6 10.8 2.5 8.6 10.2 2.4 8.6 10.2 2.4 8.6 10.3 2.4 8.6 10.2 2.5 8.6 10.2 2.4 8.6 10.3 2.4 8.6 10.8 2.4 8.6 10.8 2.5 4.5 10.8 2.6 4.5 11.4 2.6 4.8 11.4 2.5 4.8 10.8 2.5 4.5 10.8 2.6 4.6 10.8 3.0 4.6 11.4 3.0 4.5 11.4 2.6 4.8 10.8 2.5 4.8 11.4 2.5 5.1 11.4 2.4 5.1 10.8 2.4 6.7 11.4 3.0 6.7 10.8 3.0 7.2 10.8 2.9 7.2 11.4 2.9 7.2 11.4 2.9 7.2 10.8 2.9 7.8 10.8 2.7 7.8 11.4 2.7 7.8 11.4 2.7 7.8 10.8 2.7 8.4 10.8 2.5 8.4 11.4 2.5 8.4 11.4 2.5 8.4 10.8 2.5 8.6 10.8 2.5 8.6 11.4 2.5 8.6 10.8 2.5 8.6 10.8 2.4 8.6 11.4 2.4 8.6 11.4 2.5 4.5 11.4 2.6 4.5 12.0 2.6 4.8 12.0 2.5 4.8 11.4 2.5 4.5 11.4 2.6 4.6 11.4 3.0 4.6 12.0 3.0 4.5 12.0 2.6 4.8 11.4 2.5 4.8 12.0 2.5 5.1 12.0 2.4 5.1 11.4 2.4 6.7 12.0 3.0 6.7 11.4 3.0 7.2 11.4 2.9 7.2 12.0 2.9 7.2 12.0 2.9 7.2 11.4 2.9 7.8 11.4 2.7 7.8 12.0 2.7 7.8 12.0 2.7 7.8 11.4 2.7 8.4 11.4 2.5 8.4 12.0 2.5 8.4 12.0 2.5 8.4 11.4 2.5 8.6 11.4 2.5 8.6 12.0 2.5 8.6 11.4 2.5 8.6 11.4 2.4 8.6 12.0 2.4 8.6 12.0 2.5 4.5 12.0 2.6 4.5 12.6 2.6 4.8 12.6 2.5 4.8 12.0 2.5 4.5 12.0 2.6 4.6 12.0 3.0 4.6 12.1 3.0 4.6 12.6 2.9 4.5 12.6 2.6 4.6 12.1 3.0 4.6 12.6 3.0 4.6 12.6 2.9 4.8 12.0 2.5 4.8 12.6 2.5 5.1 12.6 2.4 5.1 12.0 2.4 6.7 12.0 3.0 6.7 12.0 3.0 7.2 12.0 2.9 7.2 12.5 2.9 6.7 12.6 3.0 6.7 12.0 3.0 7.2 12.5 2.9 7.2 12.6 2.9 7.2 12.5 2.9 7.2 12.0 2.9 7.8 12.0 2.7 7.8 12.6 2.7 7.3 12.6 2.8 7.2 12.6 2.9 7.2 12.5 2.9 7.3 12.6 2.8 7.8 12.6 2.7 7.8 12.0 2.7 8.4 12.0 2.5 8.4 12.6 2.5 8.4 12.6 2.5 8.4 12.0 2.5 8.6 12.0 2.5 8.6 12.6 2.5 8.6 12.0 2.5 8.6 12.0 2.4 8.6 12.6 2.4 8.6 12.6 2.5 4.5 12.6 2.6 4.5 13.2 2.6 4.8 13.2 2.5 4.8 12.6 2.5 4.5 12.6 2.6 4.6 12.6 2.9 4.6 13.2 2.7 4.5 13.2 2.6 4.6 12.6 2.9 4.6 12.6 3.0 4.6 13.2 3.0 4.6 13.2 2.7 4.8 12.6 2.5 4.8 13.2 2.5 5.1 13.2 2.4 5.1 12.6 2.4 6.7 13.2 3.0 6.7 12.6 3.0 7.2 12.6 2.9 7.2 13.2 2.9 7.2 13.2 2.9 7.2 12.6 2.9 7.3 12.6 2.8 7.8 13.1 2.7 7.8 13.2 2.7 7.3 12.6 2.8 7.8 12.6 2.7 7.8 13.1 2.7 7.8 13.1 2.7 7.8 12.6 2.7 8.4 12.6 2.5 8.4 13.2 2.5 7.9 13.2 2.7 7.8 13.2 2.7 7.8 13.1 2.7 7.9 13.2 2.7 8.4 13.2 2.5 8.4 12.6 2.5 8.6 12.6 2.5 8.6 13.2 2.5 8.6 12.6 2.5 8.6 12.6 2.4 8.6 13.2 2.4 8.6 13.2 2.5 4.5 13.2 2.6 4.5 13.8 2.6 4.8 13.8 2.5 4.8 13.2 2.5 4.5 13.2 2.6 4.6 13.2 2.7 4.5 13.8 2.6 4.5 13.8 2.6 4.6 13.2 2.7 4.6 13.2 3.0 4.6 13.8 3.0 4.5 13.8 2.6 4.8 13.2 2.5 4.8 13.8 2.5 5.1 13.8 2.4 5.1 13.2 2.4 6.7 13.8 3.0 6.7 13.2 3.0 7.2 13.2 2.9 7.2 13.8 2.9 7.2 13.8 2.9 7.2 13.2 2.9 7.8 13.2 2.7 7.8 13.8 2.7 7.8 13.8 2.7 7.8 13.2 2.7 7.9 13.2 2.7 8.4 13.8 2.5 8.4 13.8 2.5 7.9 13.2 2.7 8.4 13.2 2.5 8.4 13.8 2.5 8.4 13.8 2.5 8.4 13.2 2.5 8.6 13.2 2.5 8.6 13.8 2.5 8.4 13.8 2.5 8.4 13.8 2.5 8.4 13.8 2.5 8.4 13.8 2.5 8.6 13.2 2.5 8.6 13.2 2.4 8.6 13.8 2.4 8.6 13.8 2.5 4.5 13.8 2.6 4.5 14.0 2.6 4.8 14.0 2.5 4.8 13.8 2.5 4.5 14.0 2.6 4.8 14.0 2.5 4.8 14.0 2.5 4.5 14.0 2.6 4.6 14.0 3.0 4.8 14.0 3.0 4.8 14.0 2.5 4.5 13.8 2.6 4.5 13.8 2.6 4.5 14.0 2.6 4.5 13.8 2.6 4.6 13.8 3.0 4.6 14.0 3.0 4.5 14.0 2.6 4.8 13.8 2.5 4.8 14.0 2.5 5.1 14.0 2.4 5.1 13.8 2.4 4.8 14.0 2.5 4.8 14.0 2.5 5.4 14.0 2.5 5.4 14.0 2.4 5.1 14.0 2.4 4.8 14.0 2.5 4.8 14.0 3.0 5.4 14.0 3.0 5.4 14.0 2.5 5.4 14.0 2.4 5.4 14.0 2.5 6.0 14.0 2.5 6.0 14.0 2.4 5.4 14.0 2.5 5.4 14.0 3.0 6.0 14.0 3.0 6.0 14.0 2.5 6.0 14.0 2.4 6.0 14.0 2.5 6.6 14.0 2.5 6.6 14.0 2.4 6.0 14.0 2.5 6.0 14.0 3.0 6.6 14.0 3.0 6.6 14.0 2.5 6.6 14.0 2.4 6.6 14.0 2.5 7.2 14.0 2.5 7.2 14.0 2.4 6.6 14.0 2.5 6.6 14.0 3.0 6.7 14.0 3.0 7.2 14.0 2.9 7.2 14.0 2.5 6.7 14.0 3.0 6.7 13.8 3.0 7.2 13.8 2.9 7.2 14.0 2.9 7.2 14.0 2.4 7.2 14.0 2.5 7.8 14.0 2.5 7.8 14.0 2.4 7.2 14.0 2.9 7.2 13.8 2.9 7.8 13.8 2.7 7.8 14.0 2.7 7.2 14.0 2.5 7.2 14.0 2.9 7.8 14.0 2.7 7.8 14.0 2.5 7.8 14.0 2.4 7.8 14.0 2.5 8.4 14.0 2.5 8.4 14.0 2.4 7.8 14.0 2.7 7.8 13.8 2.7 8.4 13.8 2.5 8.4 14.0 2.5 7.8 14.0 2.5 7.8 14.0 2.7 8.4 14.0 2.5 8.4 14.0 2.5 8.4 14.0 2.4 8.4 14.0 2.5 8.6 14.0 2.5 8.6 14.0 2.4 8.4 14.0 2.5 8.4 13.8 2.5 8.4 13.8 2.5 8.6 14.0 2.5 8.4 14.0 2.5 8.4 14.0 2.5 8.6 14.0 2.5 8.4 13.8 2.5 8.6 13.8 2.5 8.6 14.0 2.5 8.6 13.8 2.5 8.6 13.8 2.4 8.6 14.0 2.4 8.6 14.0 2.5 4.8 10.0 3.5 4.6 10.0 3.0 4.8 10.0 3.0 4.8 10.0 3.5 4.8 10.0 3.5 4.8 10.0 3.5 4.8 10.0 3.5 4.8 10.2 3.5 4.8 10.0 3.5 4.8 10.0 3.5 4.8 10.2 3.5 4.6 10.0 3.0 4.8 10.0 3.5 4.8 10.2 3.5 4.6 10.2 3.0 4.8 10.0 3.5 4.8 10.2 3.5 4.8 10.2 3.5 4.8 10.0 3.5 4.8 10.0 3.0 5.4 10.0 3.0 5.4 10.0 3.3 4.8 10.0 3.5 4.8 10.0 3.5 5.4 10.0 3.3 5.4 10.2 3.3 5.0 10.2 3.5 4.8 10.2 3.5 4.8 10.0 3.5 5.0 10.2 3.5 5.4 10.0 3.3 5.4 10.0 3.0 6.0 10.0 3.0 6.0 10.0 3.2 5.4 10.2 3.3 5.4 10.0 3.3 6.0 10.0 3.2 6.0 10.2 3.2 6.0 10.0 3.2 6.0 10.0 3.0 6.6 10.0 3.0 6.6 10.0 3.0 6.0 10.2 3.2 6.0 10.0 3.2 6.6 10.0 3.0 6.6 10.2 3.0 6.6 10.0 3.0 6.6 10.0 3.0 6.7 10.0 3.0 6.6 10.2 3.0 6.6 10.0 3.0 6.7 10.0 3.0 6.7 10.2 3.0 4.8 10.8 3.5 4.8 10.2 3.5 4.8 10.2 3.5 4.8 10.8 3.5 4.6 10.2 3.0 4.8 10.2 3.5 4.7 10.8 3.3 4.6 10.8 3.0 4.8 10.2 3.5 4.8 10.2 3.5 4.8 10.8 3.5 4.7 10.8 3.3 4.8 10.8 3.5 4.8 10.2 3.5 5.0 10.2 3.5 5.4 10.7 3.3 5.4 10.8 3.3 5.0 10.2 3.5 5.4 10.2 3.3 5.4 10.7 3.3 5.4 10.7 3.3 5.4 10.2 3.3 6.0 10.2 3.2 6.0 10.8 3.2 5.5 10.8 3.3 5.4 10.8 3.3 5.4 10.7 3.3 5.5 10.8 3.3 6.0 10.8 3.2 6.0 10.2 3.2 6.6 10.2 3.0 6.6 10.8 3.0 6.6 10.8 3.0 6.6 10.2 3.0 6.7 10.2 3.0 6.7 10.8 3.0 4.8 11.4 3.5 4.8 10.8 3.5 4.8 10.8 3.5 4.8 11.4 3.5 4.6 10.8 3.0 4.7 10.8 3.3 4.7 11.4 3.2 4.6 11.4 3.0 4.7 10.8 3.3 4.8 10.8 3.5 4.8 11.4 3.5 4.7 11.4 3.2 4.8 11.4 3.5 4.8 10.8 3.5 5.4 10.8 3.3 5.4 11.4 3.3 5.4 11.4 3.3 5.4 10.8 3.3 5.5 10.8 3.3 6.0 11.3 3.2 6.0 11.4 3.2 5.5 10.8 3.3 6.0 10.8 3.2 6.0 11.3 3.2 6.0 11.3 3.2 6.0 10.8 3.2 6.6 10.8 3.0 6.6 11.4 3.0 6.1 11.4 3.2 6.0 11.4 3.2 6.0 11.3 3.2 6.1 11.4 3.2 6.6 11.4 3.0 6.6 10.8 3.0 6.7 10.8 3.0 6.7 11.4 3.0 4.8 12.0 3.5 4.8 11.4 3.5 4.8 11.4 3.5 4.8 12.0 3.5 4.6 11.4 3.0 4.7 11.4 3.2 4.6 12.0 3.0 4.6 12.0 3.0 4.7 11.4 3.2 4.8 11.4 3.5 4.8 12.0 3.5 4.6 12.0 3.0 4.8 12.0 3.5 4.8 11.4 3.5 5.4 11.4 3.3 5.4 12.0 3.3 5.4 12.0 3.3 5.4 11.4 3.3 6.0 11.4 3.2 6.0 12.0 3.2 6.0 12.0 3.2 6.0 11.4 3.2 6.1 11.4 3.2 6.6 11.9 3.0 6.6 12.0 3.0 6.1 11.4 3.2 6.6 11.4 3.0 6.6 11.9 3.0 6.6 11.9 3.0 6.6 11.4 3.0 6.7 11.4 3.0 6.7 12.0 3.0 6.7 12.0 3.0 6.6 12.0 3.0 6.6 11.9 3.0 6.7 12.0 3.0 4.8 12.6 3.5 4.8 12.0 3.5 4.8 12.0 3.5 4.8 12.6 3.5 4.6 12.0 3.0 4.6 12.0 3.0 4.6 12.1 3.0 4.6 12.0 3.0 4.8 12.0 3.5 4.8 12.6 3.5 4.6 12.6 3.0 4.6 12.1 3.0 4.8 12.6 3.5 4.8 12.0 3.5 5.4 12.0 3.3 5.4 12.6 3.3 5.4 12.6 3.3 5.4 12.0 3.3 6.0 12.0 3.2 6.0 12.6 3.2 6.0 12.6 3.2 6.0 12.0 3.2 6.6 12.0 3.0 6.6 12.6 3.0 6.6 12.6 3.0 6.6 12.0 3.0 6.7 12.0 3.0 6.7 12.0 3.0 6.7 12.6 3.0 6.7 12.0 3.0 6.7 12.0 3.0 6.7 12.0 3.0 4.8 13.2 3.5 4.8 12.6 3.5 4.8 12.6 3.5 4.8 13.2 3.5 4.6 12.6 3.0 4.8 12.6 3.5 4.8 13.2 3.5 4.6 13.2 3.0 4.8 13.2 3.5 4.8 12.6 3.5 5.4 12.6 3.3 5.4 13.2 3.3 5.4 13.2 3.3 5.4 12.6 3.3 6.0 12.6 3.2 6.0 13.2 3.2 6.0 13.2 3.2 6.0 12.6 3.2 6.6 12.6 3.0 6.6 13.2 3.0 6.6 13.2 3.0 6.6 12.6 3.0 6.7 12.6 3.0 6.7 13.2 3.0 4.8 13.8 3.5 4.8 13.2 3.5 4.8 13.2 3.5 4.8 13.8 3.5 4.6 13.2 3.0 4.8 13.2 3.5 4.8 13.8 3.5 4.6 13.8 3.0 4.8 13.8 3.5 4.8 13.2 3.5 5.4 13.2 3.3 5.4 13.8 3.3 5.4 13.8 3.3 5.4 13.2 3.3 6.0 13.2 3.2 6.0 13.8 3.2 6.0 13.8 3.2 6.0 13.2 3.2 6.6 13.2 3.0 6.6 13.8 3.0 6.6 13.8 3.0 6.6 13.2 3.0 6.7 13.2 3.0 6.7 13.8 3.0 4.8 14.0 3.5 4.8 13.8 3.5 4.8 13.8 3.5 4.8 14.0 3.5 4.6 14.0 3.0 4.8 14.0 3.5 4.8 14.0 3.5 4.8 14.0 3.0 4.6 13.8 3.0 4.8 13.8 3.5 4.8 14.0 3.5 4.6 14.0 3.0 4.8 14.0 3.5 4.8 13.8 3.5 5.4 13.8 3.3 5.4 14.0 3.3 4.8 14.0 3.0 4.8 14.0 3.5 5.4 14.0 3.3 5.4 14.0 3.0 5.4 14.0 3.3 5.4 13.8 3.3 6.0 13.8 3.2 6.0 14.0 3.2 5.4 14.0 3.0 5.4 14.0 3.3 6.0 14.0 3.2 6.0 14.0 3.0 6.0 14.0 3.2 6.0 13.8 3.2 6.6 13.8 3.0 6.6 14.0 3.0 6.0 14.0 3.0 6.0 14.0 3.2 6.6 14.0 3.0 6.6 14.0 3.0 6.6 14.0 3.0 6.6 13.8 3.0 6.7 13.8 3.0 6.7 14.0 3.0 6.6 14.0 3.0 6.6 14.0 3.0 6.7 14.0 3.0 
        </DataArray>
    </Points>
    <CellData>
        <DataArray type="Float32" Name="water drops AMPUA" format="ascii">
            0.0 0.0 0.0 0.0 0.0 0.0 0.0 0.0 0.0 0.0 0.0 0.0 0.0 0.0 0.0 0.0 0.0 0.0 0.0 0.0 0.0 0.0 0.0 0.0 0.0 0.0 0.0 0.0 0.0 0.0 0.0 0.0 0.0 0.0 0.0 0.0 0.0 0.0 0.0 0.0 0.0 0.0 0.0 0.0 0.0 0.0 0.0 0.0 0.0 0.0 0.0 0.0 0.0 0.0 0.0 0.0 0.0 0.0 0.0 0.0 0.0 0.0 0.0 0.0 0.0 0.0 0.0 0.0 0.0 0.0 0.0 0.0 0.0 0.0 0.0 0.0 0.0 0.0 0.0 0.0 0.0 0.0 0.0 0.0 0.0 0.0 0.0 0.0 0.0 0.0 0.0 0.0 0.0 0.0 0.0 0.0 0.0 0.0 0.0 0.0 0.0 0.0 0.0 0.0 0.0 0.0 0.0 0.0 0.0 0.0 0.0 0.0 0.0 0.0 0.0 0.0 0.0 0.0 0.0 0.0 0.0 0.0 0.0 0.0 0.0 0.0 0.0 0.0 0.0 0.0 0.0 0.0 0.0 0.0 0.0 0.0 0.0 0.0 0.0 0.0 0.0 0.0 0.0 0.0 0.0 0.0 0.0 0.0 0.0 0.0 0.0 0.0 0.0 0.0 0.0 0.0 0.0 0.0 0.0 0.0 0.0 0.0 0.0 0.0 0.0 0.0 0.0 0.0 0.0 0.0 0.0 0.0 0.0 0.0 0.0 0.0 0.0 0.0 0.0 0.0 0.0 0.0 0.0 0.0 0.0 0.0 0.0 0.0 0.0 0.0 0.0 0.0 0.0 0.0 0.0 0.0 0.0 0.0 0.0 0.0 0.0 0.0 0.0 0.0 0.0 0.0 0.0 0.0 0.0 0.0 0.0 0.0 0.0 0.0 0.0 0.0 0.0 0.0 0.0 0.0 0.0 0.0 0.0 0.0 0.0 0.0 0.0 0.0 0.0 0.0 0.0 0.0 0.0 0.0 0.0 0.0 0.0 0.0 0.0 0.0 0.0 0.0 0.0 0.0 0.0 0.0 0.0 0.0 0.0 0.0 0.0 0.0 0.0 0.0 0.0 0.0 0.0 0.0 0.0 0.0 0.0 0.0 0.0 0.0 0.0 0.0 0.0 0.0 0.0 0.0 0.0 0.0 0.0 0.0 0.0 0.0 0.0 0.0 0.0 0.0 0.0 0.0 0.0 0.0 0.0 0.0 0.0 0.0 0.0 0.0 0.0 0.0 0.0 0.0 0.0 0.0 0.0 0.0 0.0 0.0 0.0 0.0 0.0 0.0 0.0 0.0 0.0 0.0 0.0 0.0 0.0 0.0 0.0 0.0 0.0 0.0 0.0 0.0 0.0 0.0 0.0 0.0 0.0 0.0 0.0 0.0 0.0 0.0 0.0 0.0 0.0 0.0 0.0 0.0 0.0 0.0 0.0 0.0 0.0 0.0 0.0 0.0 0.0 0.0 0.0 0.0 0.0 0.0 0.0 0.0 0.0 0.0 0.0 0.0 0.0 0.0 0.0 0.0 0.0 0.0 0.0 0.0 0.0 0.0 0.0 0.0 0.0 0.0 0.0 0.0 0.0 0.0 0.0 0.0 0.0 0.0 0.0 0.0 0.0 0.0 0.0 0.0 0.0 0.0 0.0 0.0 0.0 0.0 0.0 0.0 0.0 0.0 0.0 0.0 0.0 0.0 0.0 0.0 0.0 0.0 0.0 0.0 0.0 0.0 0.0 0.0 0.0 0.0 0.0 0.0 0.0 0.0 0.0 0.0 0.0 0.0 0.0 0.0 0.0 0.0 0.0 0.0 0.0 0.0 0.0 0.0 0.0 0.0 0.0 0.0 0.0 0.0 0.0 0.0 0.0 0.0 0.0 0.0 0.0 0.0 0.0 0.0 0.0 0.0 0.0 0.0 0.0 0.0 0.0 0.0 0.0 0.0 0.0 0.0 0.0 0.0 0.0 0.0 0.0 0.0 0.0 0.0 0.0 0.0 0.0 0.0 0.0 0.0 0.0 0.0 0.0 0.0 0.0 0.0 0.0 0.0 0.0 0.0 0.0 0.0 0.0 0.0 0.0 0.0 0.0 0.0 0.0 0.0 0.0 0.0 0.0 0.0 0.0 0.0 0.0 0.0 0.0 0.0 0.0 0.0 0.0 0.0 0.0 0.0 0.0 0.0 0.0 0.0 0.0 0.0 0.0 0.0 0.0 0.0 0.0 0.0 0.0 0.0 0.0 0.0 0.0 0.0 0.0 0.0 0.0 0.0 0.0 0.0 0.0 0.0 0.0 0.0 0.0 0.0 0.0 0.0 0.0 0.0 0.0 0.0 0.0 0.0 0.0 0.0 0.0 0.0 0.0 0.0 0.0 0.0 0.0 0.0 0.0 0.0 0.0 0.0 0.0 0.0 0.0 0.0 0.0 0.0 0.0 0.0 0.0 0.0 0.0 0.0 0.0 0.0 0.0 0.0 0.0 0.0 0.0 0.0 0.0 0.0 0.0 0.0 0.0 0.0 0.0 0.0 0.0 0.0 0.0 0.0 0.0 0.0 0.0 0.0 0.0 0.0 0.0 0.0 0.0 0.0 0.0 0.0 
         </DataArray>
        <DataArray type="Float32" Name="WALL TEMPERATURE" format="ascii">
            20.6 20.7 20.7 20.9 20.9 20.9 21.2 21.2 34.9 34.9 20.7 34.2 34.2 22.5 22.5 24.5 24.5 61.9 61.9 63.0 63.0 22.8 22.8 25.3 25.3 67.1 67.1 68.4 68.4 23.2 23.2 25.9 25.9 70.6 70.6 72.0 72.0 23.5 23.5 26.7 26.7 79.5 79.5 81.3 81.3 22.1 22.1 22.1 23.5 27.0 27.0 85.2 85.2 87.3 87.3 87.3 87.3 23.5 23.3 23.3 23.3 26.3 26.3 26.3 23.5 77.2 77.2 77.2 77.2 78.9 78.9 78.9 78.9 21.2 21.2 21.2 26.6 26.6 21.8 21.8 21.8 42.9 42.9 25.9 42.9 41.8 41.8 21.0 20.4 21.1 21.1 20.5 20.5 21.2 21.2 20.5 20.5 21.2 21.2 20.5 20.5 21.3 21.3 20.6 20.6 20.6 22.3 22.3 20.6 20.6 21.4 21.4 52.9 52.9 21.1 21.1 21.1 21.1 21.2 21.2 21.3 21.3 21.4 21.4 21.7 21.7 60.7 60.7 60.7 60.5 21.1 21.2 21.2 21.2 21.3 21.3 21.3 21.3 21.4 21.4 21.5 21.5 21.9 21.9 66.1 66.1 65.9 65.9 21.3 21.3 21.3 21.3 21.3 21.4 21.5 21.5 21.5 21.5 21.6 21.6 22.0 22.0 69.8 69.8 69.6 69.6 21.3 21.3 21.4 21.4 21.4 21.4 21.4 21.4 21.6 21.6 21.6 21.6 22.1 22.1 78.5 78.5 78.3 78.3 21.4 21.4 21.4 21.4 21.4 21.4 21.6 21.6 21.6 21.8 22.1 22.1 22.1 22.1 83.9 83.7 83.7 83.7 21.3 21.3 21.4 21.4 21.5 21.5 21.6 21.6 22.1 22.1 76.0 76.0 21.5 21.5 20.6 21.5 21.5 20.7 20.7 21.6 21.6 20.8 20.8 21.8 21.8 20.8 20.8 23.2 23.2 20.9 20.9 20.9 20.9 20.9 23.1 23.1 67.7 67.7 20.4 20.9 20.9 20.4 20.4 20.9 20.2 20.2 20.4 20.4 20.4 21.0 21.0 20.4 20.4 20.5 20.5 20.5 20.5 20.5 20.5 20.5 20.5 20.7 20.7 20.7 20.7 20.7 22.7 22.7 20.7 20.7 20.7 20.7 24.8 24.8 20.9 20.9 20.9 20.9 25.7 25.7 21.4 21.4 21.4 34.0 34.0 50.0 50.0 50.0 20.9 20.8 20.8 20.8 20.2 20.2 20.8 20.8 20.8 20.8 23.0 23.0 23.4 23.4 25.3 25.3 46.8 46.8 56.7 56.7 56.7 56.7 20.8 20.8 20.2 20.2 20.9 20.9 23.3 23.3 23.8 23.8 26.1 26.1 50.5 50.5 61.7 61.7 20.9 20.9 20.2 20.2 20.9 20.9 23.5 23.5 24.1 24.1 26.9 26.9 53.1 53.1 65.3 65.3 21.0 21.0 20.2 20.2 20.2 20.2 20.8 20.8 23.5 23.5 23.4 23.4 24.2 24.2 24.2 24.0 27.5 27.5 58.6 58.6 73.0 73.0 21.0 21.0 20.2 20.2 20.2 20.2 20.8 20.8 23.5 23.5 24.1 24.1 24.1 24.2 28.1 28.1 28.1 27.5 61.5 61.5 77.4 77.4 20.9 20.9 20.2 20.2 20.2 20.2 20.9 20.9 23.5 23.5 24.1 24.1 27.1 27.1 27.1 27.6 56.6 56.6 56.6 33.8 70.4 70.4 21.1 21.1 20.5 20.5 20.5 20.2 20.2 20.2 21.3 21.3 20.6 20.6 20.6 20.6 20.6 20.6 20.6 20.6 20.6 20.7 20.7 20.7 20.7 21.2 21.2 21.2 21.2 21.2 23.5 23.5 21.4 21.4 26.6 26.6 21.4 21.4 21.7 21.7 27.9 27.9 21.7 21.7 23.0 23.0 32.0 32.0 23.0 32.0 63.1 63.1 20.5 20.5 22.0 22.0 22.0 20.3 20.3 20.3 20.5 20.5 22.3 22.3 22.3 22.3 20.6 20.6 22.7 22.7 20.6 20.6 23.0 23.0 20.6 22.5 22.5 22.0 22.0 20.3 20.3 20.3 20.3 21.9 21.9 21.9 21.9 22.7 22.7 22.7 22.7 23.0 23.0 22.9 22.9 22.1 22.1 20.3 20.3 20.3 20.3 22.0 22.0 22.8 22.8 22.8 22.9 23.2 23.2 23.2 23.2 23.2 23.2 22.2 22.2 20.3 20.3 20.3 20.3 22.0 22.0 23.0 23.0 23.5 23.5 23.5 23.4 23.3 23.3 23.3 23.3 22.4 22.4 20.3 20.3 20.3 20.3 21.9 21.9 23.1 23.1 23.6 23.6 23.3 23.3 23.3 23.3 22.4 22.4 20.3 20.3 21.9 21.9 23.2 23.2 23.7 23.7 23.3 23.3 22.3 22.3 20.3 20.3 22.0 22.0 23.1 23.1 23.5 23.5 23.3 23.3 22.5 22.5 20.8 20.8 20.3 20.3 22.9 22.9 20.9 20.9 23.4 23.4 20.9 20.9 23.8 23.8 21.1 21.1 23.3 23.3 20.7 
         </DataArray>
        <DataArray type="Float32" Name="HRRPUA" format="ascii">
            0.0 0.0 0.0 0.0 0.0 0.0 0.0 0.0 0.0 0.0 0.0 0.0 0.0 0.0 0.0 0.0 0.0 0.0 0.0 0.0 0.0 0.0 0.0 0.0 0.0 0.0 0.0 0.0 0.0 0.0 0.0 0.0 0.0 0.0 0.0 0.0 0.0 0.0 0.0 0.0 0.0 0.0 0.0 0.0 0.0 0.0 0.0 0.0 0.0 0.0 0.0 0.0 0.0 0.0 0.0 0.0 0.0 0.0 0.0 0.0 0.0 0.0 0.0 0.0 0.0 0.0 0.0 0.0 0.0 0.0 0.0 0.0 0.0 0.0 0.0 0.0 0.0 0.0 0.0 0.0 0.0 0.0 0.0 0.0 0.0 0.0 0.0 0.0 0.0 0.0 0.0 0.0 0.0 0.0 0.0 0.0 0.0 0.0 0.0 0.0 0.0 0.0 0.0 0.0 0.0 0.0 0.0 0.0 0.0 0.0 0.0 0.0 0.0 0.0 0.0 0.0 0.0 0.0 0.0 0.0 0.0 0.0 0.0 0.0 0.0 0.0 0.0 0.0 0.0 0.0 0.0 0.0 0.0 0.0 0.0 0.0 0.0 0.0 0.0 0.0 0.0 0.0 0.0 0.0 0.0 0.0 0.0 0.0 0.0 0.0 0.0 0.0 0.0 0.0 0.0 0.0 0.0 0.0 0.0 0.0 0.0 0.0 0.0 0.0 0.0 0.0 0.0 0.0 0.0 0.0 0.0 0.0 0.0 0.0 0.0 0.0 0.0 0.0 0.0 0.0 0.0 0.0 0.0 0.0 0.0 0.0 0.0 0.0 0.0 0.0 0.0 0.0 0.0 0.0 0.0 0.0 0.0 0.0 0.0 0.0 0.0 0.0 0.0 0.0 0.0 0.0 0.0 0.0 0.0 0.0 0.0 0.0 0.0 0.0 0.0 0.0 0.0 0.0 0.0 0.0 0.0 0.0 0.0 0.0 0.0 0.0 0.0 0.0 0.0 0.0 0.0 0.0 0.0 0.0 0.0 0.0 0.0 0.0 0.0 0.0 0.0 0.0 0.0 0.0 0.0 0.0 0.0 0.0 0.0 0.0 0.0 0.0 0.0 0.0 0.0 0.0 0.0 0.0 0.0 0.0 0.0 0.0 0.0 0.0 0.0 0.0 0.0 0.0 0.0 0.0 0.0 0.0 0.0 0.0 0.0 0.0 0.0 0.0 0.0 0.0 0.0 0.0 0.0 0.0 0.0 0.0 0.0 0.0 0.0 0.0 0.0 0.0 0.0 0.0 0.0 0.0 0.0 0.0 0.0 0.0 0.0 0.0 0.0 0.0 0.0 0.0 0.0 0.0 0.0 0.0 0.0 0.0 0.0 0.0 0.0 0.0 0.0 0.0 0.0 0.0 0.0 0.0 0.0 0.0 0.0 0.0 0.0 0.0 0.0 0.0 0.0 0.0 0.0 0.0 0.0 0.0 0.0 0.0 0.0 0.0 0.0 0.0 0.0 0.0 0.0 0.0 0.0 0.0 0.0 0.0 0.0 0.0 0.0 0.0 0.0 0.0 0.0 0.0 0.0 0.0 0.0 0.0 0.0 0.0 0.0 0.0 0.0 0.0 0.0 0.0 0.0 0.0 0.0 0.0 0.0 0.0 0.0 0.0 0.0 0.0 0.0 0.0 0.0 0.0 0.0 0.0 0.0 0.0 0.0 0.0 0.0 0.0 0.0 0.0 0.0 0.0 0.0 0.0 0.0 0.0 0.0 0.0 0.0 0.0 0.0 0.0 0.0 0.0 0.0 0.0 0.0 0.0 0.0 0.0 0.0 0.0 0.0 0.0 0.0 0.0 0.0 0.0 0.0 0.0 0.0 0.0 0.0 0.0 0.0 0.0 0.0 0.0 0.0 0.0 0.0 0.0 0.0 0.0 0.0 0.0 0.0 0.0 0.0 0.0 0.0 0.0 0.0 0.0 0.0 0.0 0.0 0.0 0.0 0.0 0.0 0.0 0.0 0.0 0.0 0.0 0.0 0.0 0.0 0.0 0.0 0.0 0.0 0.0 0.0 0.0 0.0 0.0 0.0 0.0 0.0 0.0 0.0 0.0 0.0 0.0 0.0 0.0 0.0 0.0 0.0 0.0 0.0 0.0 0.0 0.0 0.0 0.0 0.0 0.0 0.0 0.0 0.0 0.0 0.0 0.0 0.0 0.0 0.0 0.0 0.0 0.0 0.0 0.0 0.0 0.0 0.0 0.0 0.0 0.0 0.0 0.0 0.0 0.0 0.0 0.0 0.0 0.0 0.0 0.0 0.0 0.0 0.0 0.0 0.0 0.0 0.0 0.0 0.0 0.0 0.0 0.0 0.0 0.0 0.0 0.0 0.0 0.0 0.0 0.0 0.0 0.0 0.0 0.0 0.0 0.0 0.0 0.0 0.0 0.0 0.0 0.0 0.0 0.0 0.0 0.0 0.0 0.0 0.0 0.0 0.0 0.0 0.0 0.0 0.0 0.0 0.0 0.0 0.0 0.0 0.0 0.0 0.0 0.0 0.0 0.0 0.0 0.0 0.0 0.0 0.0 0.0 0.0 0.0 0.0 0.0 0.0 0.0 0.0 0.0 0.0 0.0 0.0 0.0 0.0 0.0 
         </DataArray>
        <DataArray type="Float32" Name="GAS TEMPERATURE" format="ascii">
            20.5 20.5 20.5 20.7 20.7 20.7 20.7 20.7 20.7 20.7 20.7 20.7 20.7 20.4 20.4 20.7 20.7 20.7 20.7 21.2 21.2 20.4 20.4 20.6 20.6 20.6 20.6 21.4 21.4 20.4 20.4 20.6 20.6 20.6 20.6 21.5 21.5 20.4 20.4 20.7 20.7 20.7 20.7 21.5 21.5 20.4 20.4 20.4 20.4 20.7 20.7 20.7 20.7 21.6 21.6 21.6 21.6 20.4 20.4 20.4 20.4 20.7 20.7 20.7 20.7 20.7 20.7 20.7 20.7 21.5 21.5 21.5 21.5 20.5 20.5 20.5 20.8 20.8 20.8 20.8 20.8 20.8 20.8 20.8 20.8 21.0 21.0 21.0 20.2 20.2 20.2 20.3 20.3 20.3 20.3 20.4 20.4 20.4 20.4 20.5 20.5 20.5 20.5 20.6 20.6 20.6 20.6 20.6 20.7 20.7 21.0 21.0 21.0 21.0 20.2 20.2 20.2 20.2 20.2 20.2 20.3 20.3 20.3 20.3 20.4 20.4 22.3 22.3 22.3 22.3 20.1 20.1 20.1 20.1 20.2 20.2 20.2 20.2 20.2 20.2 20.3 20.3 20.4 20.4 23.4 23.4 23.4 23.4 20.1 20.1 20.2 20.2 20.2 20.2 20.2 20.2 20.2 20.2 20.3 20.3 20.4 20.4 24.2 24.2 24.2 24.2 20.1 20.1 20.2 20.2 20.2 20.2 20.2 20.2 20.3 20.3 20.3 20.3 20.4 20.4 25.2 25.2 25.2 25.2 20.1 20.1 20.2 20.2 20.2 20.2 20.3 20.3 20.3 20.3 20.4 20.4 20.4 20.4 24.9 24.9 24.9 24.9 20.2 20.2 20.3 20.3 20.3 20.3 20.3 20.3 20.4 20.4 24.7 24.7 20.2 20.2 20.2 20.3 20.3 20.3 20.3 20.5 20.5 20.5 20.5 20.6 20.6 20.6 20.6 20.8 20.8 20.8 20.8 20.8 20.9 20.9 21.4 21.4 21.4 21.4 20.2 20.2 20.2 20.2 20.2 20.2 20.2 20.2 20.3 20.3 20.3 20.3 20.3 20.3 20.3 20.4 20.4 20.4 20.4 20.4 20.4 20.4 20.4 20.5 20.5 20.5 20.5 20.5 20.5 20.5 20.7 20.7 20.7 20.7 20.7 20.7 20.8 20.8 20.8 20.8 20.8 20.8 21.0 21.0 21.0 21.0 21.0 21.0 21.0 21.0 20.2 20.2 20.2 20.2 20.2 20.2 20.2 20.2 20.2 20.2 20.9 20.9 20.9 20.9 21.1 21.1 21.5 21.5 21.5 21.5 21.5 21.5 20.2 20.2 20.2 20.2 20.1 20.1 21.0 21.0 21.1 21.1 21.3 21.3 22.0 22.0 22.0 22.0 20.2 20.2 20.2 20.2 20.1 20.1 21.0 21.0 21.2 21.2 21.5 21.5 22.4 22.4 22.4 22.4 20.2 20.2 20.2 20.2 20.2 20.2 20.1 20.1 21.0 21.0 21.0 21.0 21.1 21.1 21.1 21.1 21.5 21.5 23.2 23.2 23.2 23.2 20.2 20.2 20.2 20.2 20.2 20.2 20.1 20.1 20.9 20.9 21.1 21.1 21.1 21.1 21.5 21.5 21.5 21.5 23.1 23.1 23.1 23.1 20.2 20.2 20.2 20.2 20.2 20.2 20.2 20.2 20.9 20.9 21.1 21.1 21.5 21.5 21.5 21.5 23.2 23.2 23.2 23.2 23.2 23.2 20.2 20.2 20.2 20.2 20.2 20.2 20.2 20.2 20.3 20.3 20.3 20.3 20.3 20.3 20.3 20.5 20.5 20.5 20.5 20.7 20.7 20.7 20.7 20.9 20.9 20.9 20.9 20.9 20.9 20.9 21.1 21.1 21.1 21.1 21.1 21.1 21.3 21.3 21.3 21.3 21.3 21.3 21.8 21.8 21.8 21.8 21.8 21.8 21.8 21.8 20.3 20.3 20.3 20.3 20.3 20.3 20.3 20.3 20.4 20.4 20.4 20.4 20.4 20.4 20.5 20.5 20.5 20.5 20.6 20.6 20.6 20.6 20.7 20.7 20.7 20.3 20.3 20.3 20.3 20.3 20.3 20.4 20.4 20.4 20.4 20.6 20.6 20.6 20.6 20.8 20.8 20.9 20.9 20.2 20.2 20.2 20.2 20.2 20.2 20.4 20.4 20.6 20.6 20.6 20.6 20.8 20.8 20.8 20.8 21.0 21.0 20.3 20.3 20.3 20.3 20.3 20.3 20.4 20.4 20.6 20.6 20.8 20.8 20.8 20.8 21.0 21.0 21.0 21.0 20.3 20.3 20.3 20.3 20.3 20.3 20.4 20.4 20.6 20.6 20.8 20.8 21.0 21.0 21.0 21.0 20.3 20.3 20.3 20.3 20.4 20.4 20.6 20.6 20.8 20.8 20.9 20.9 20.3 20.3 20.3 20.3 20.4 20.4 20.6 20.6 20.8 20.8 20.9 20.9 20.3 20.3 20.3 20.3 20.3 20.3 20.4 20.4 20.4 20.4 20.6 20.6 20.6 20.6 20.8 20.8 20.8 20.8 20.9 20.9 20.9 
         </DataArray>
    </CellData>
    <Polys>
        <DataArray type="Int32" Name="connectivity" format="ascii">