<?xml version="1.0"?>
<VTKFile type="ImageData" version="1.0" byte_order="LittleEndian" header_type="UInt64">
<ImageData WholeExtent="25 50 25 50 1 1"
 Origin="15.0000 15.0000 0.0000" Spacing="0.6000 0.6000 0.6000">
<Piece Extent="25 50 25 50 1 1">
<PointData>
<DataArray Name="TEMPERATURE" NumberOfComponents="1" type="Float32" format="ascii">
30.8 33.5 35.0 40.3 46.2 48.5 50.2 47.1 40.3 36.2 35.3 34.3 31.8 33.1 35.6 36.0 32.3 26.0 21.4 20.3 20.2 20.2 20.2 20.2 20.1 20.1 40.0 39.7 39.1 40.7 43.0 42.4 44.8 41.6 32.5 29.8 30.6 31.0 32.0 36.2 40.2 40.6 35.9 28.0 21.9 20.3 20.2 20.2 20.1 20.1 20.1 20.1 47.4 49.1 48.2 46.2 44.8 41.3 41.0 39.0 34.0 33.3 33.8 34.3 36.0 39.2 42.2 41.7 35.9 27.1 21.4 20.2 20.2 20.1 20.1 20.1 20.1 20.1 47.2 52.6 56.8 57.0 52.7 45.9 42.4 41.9 41.6 42.8 43.3 42.5 41.5 40.8 40.0 36.9 30.0 23.3 20.5 20.2 20.2 20.1 20.1 20.1 20.1 20.1 41.6 47.0 56.4 62.4 59.4 52.7 48.5 49.3 52.1 53.5 52.0 49.0 44.4 38.6 33.1 27.9 23.2 20.7 20.2 20.2 20.1 20.1 20.1 20.1 20.1 20.1 41.5 41.5 47.8 56.1 59.5 58.9 57.6 59.2 60.0 55.8 51.5 48.3 41.8 32.6 25.3 21.7 20.5 20.2 20.2 20.2 20.1 20.1 20.1 20.1 20.1 20.1 46.2 44.3 44.9 52.6 61.7 66.2 67.6 67.3 59.4 46.4 41.1 39.3 32.9 25.2 21.1 20.3 20.2 20.2 20.2 20.1 20.1 20.1 20.1 20.1 20.1 20.1 45.1 47.6 48.4 55.8 67.3 74.0 75.9 69.9 51.3 32.9 27.9 27.2 23.9 21.0 20.2 20.2 20.2 20.2 20.1 20.1 20.1 20.1 20.1 20.1 20.1 20.1 35.1 41.4 45.2 54.3 68.7 78.9 80.4 67.1 42.0 24.7 21.2 21.0 20.5 20.2 20.2 20.2 20.2 20.1 20.1 20.1 20.1 20.1 20.1 20.1 20.1 20.1 24.6 29.3 33.6 44.1 61.2 77.0 79.3 59.6 34.2 21.9 20.3 20.2 20.2 20.2 20.2 20.2 20.1 20.1 20.1 20.1 20.1 20.1 20.1 20.1 20.1 20.1 20.5 21.6 23.6 30.9 45.2 66.0 70.7 48.1 27.3 20.7 20.2 20.2 20.2 20.2 20.1 20.1 20.1 20.1 20.1 20.1 20.1 20.1 20.1 20.1 20.1 20.1 20.2 20.2 20.4 22.5 30.5 51.2 55.7 35.2 22.5 20.2 20.2 20.2 20.2 20.1 20.1 20.1 20.1 20.1 20.1 20.1 20.1 20.1 20.1 20.1 20.0 20.0 20.1 20.2 20.2 20.3 23.6 37.5 39.3 25.6 20.5 20.2 20.2 20.2 20.1 20.1 20.1 20.1 20.1 20.1 20.1 20.1 20.1 20.1 20.1 20.0 20.0 20.0 20.1 20.1 20.2 20.2 21.1 26.7 27.0 21.4 20.2 20.2 20.2 20.1 20.1 20.1 20.1 20.1 20.1 20.1 20.1 20.1 20.1 20.1 20.0 20.0 20.0 20.0 20.1 20.1 20.1 20.1 20.2 21.4 21.3 20.2 20.1 20.1 20.1 20.1 20.1 20.1 20.1 20.1 20.1 20.1 20.1 20.1 20.1 20.0 20.0 20.0 20.0 20.0 20.1 20.1 20.1 20.1 20.1 20.1 20.1 20.1 20.1 20.1 20.1 20.1 20.1 20.1 20.1 20.1 20.1 20.1 20.1 20.1 20.0 20.0 20.0 20.0 20.0 20.0 20.1 20.1 20.1 20.1 20.1 20.1 20.1 20.1 20.1 20.1 20.1 20.1 20.1 20.1 20.1 20.1 20.1 20.1 20.1 20.0 20.0 20.0 20.0 20.0 20.0 20.0 20.1 20.1 20.1 20.1 20.1 20.1 20.1 20.1 20.1 20.1 20.1 20.1 20.1 20.1 20.1 20.1 20.1 20.0 20.0 20.0 20.0 20.0 20.0 20.0 20.0 20.0 20.1 20.1 20.1 20.1 20.1 20.1 20.1 20.1 20.1 20.1 20.1 20.1 20.1 20.1 20.0 20.0 20.0 20.0 20.0 20.0 20.0 20.0 20.0 20.0 20.0 20.0 20.1 20.1 20.1 20.1 20.1 20.1 20.1 20.1 20.1 20.1 20.1 20.1 20.1 20.0 20.0 20.0 20.0 20.0 20.0 20.0 20.0 20.0 20.0 20.0 20.0 20.0 20.0 20.1 20.1 20.1 20.1 20.1 20.0 20.0 20.1 20.1 20.1 20.1 20.1 20.0 20.0 20.0 20.0 20.0 20.0 20.0 20.0 20.0 20.0 20.0 20.0 20.0 20.0 20.1 20.1 20.1 20.1 20.0 20.0 20.0 20.0 20.1 20.1 20.1 20.0 20.0 20.0 20.0 20.0 20.0 20.0 20.0 20.0 20.0 20.0 20.0 20.0 20.0 20.0 20.0 20.0 20.0 20.0 20.0 20.0 20.0 20.0 20.0 20.1 20.0 20.0 20.0 20.0 20.0 20.0 20.0 20.0 20.0 20.0 20.0 20.0 20.0 20.0 20.0 20.0 20.0 20.0 20.0 20.0 20.0 20.0 20.0 20.0 20.0 20.0 20.0 20.0 20.0 20.0 20.0 20.0 20.0 20.0 20.0 20.0 20.0 20.0 20.0 20.0 20.0 20.0 20.0 20.0 20.0 20.0 20.0 20.0 20.0 20.0 20.0 20.0 20.0 20.0 20.0 20.0 20.0 20.0 20.0 20.0 20.0 20.0 20.0 20.0 20.0 20.0 20.0 20.0 20.0 20.0 20.0 20.0 20.0 20.0 20.0 20.0 20.0 20.0 20.0 20.0 20.0 20.0 20.0 20.0 20.0 20.0 20.0 20.0 20.0 20.0 20.0 20.0 20.0 
</DataArray>
</PointData>
</Piece>
</ImageData>
</VTKFile>
