<?xml version="1.0"?>
<VTKFile type="ImageData" version="1.0" byte_order="LittleEndian" header_type="UInt64">
<ImageData WholeExtent="0 25 25 50 1 1"
 Origin="0.0000 15.0000 0.0000" Spacing="0.6000 0.6000 0.6000">
<Piece Extent="0 25 25 50 1 1">
<PointData>
<DataArray Name="TEMPERATURE" NumberOfComponents="1" type="Float32" format="ascii">
23.2 24.9 26.0 26.9 29.1 30.3 30.7 30.5 30.6 31.8 33.5 34.9 35.2 32.8 30.3 29.4 28.8 28.9 32.0 37.6 44.6 52.2 49.6 48.8 65.3 63.8 23.2 24.8 26.2 27.5 29.5 30.5 30.4 29.7 29.6 30.8 32.6 34.0 34.1 32.5 30.5 29.3 28.8 29.3 32.1 35.9 41.2 52.8 59.4 53.9 53.9 64.6 23.2 24.7 26.2 27.6 29.2 29.8 29.8 29.6 29.7 30.5 31.7 32.5 32.6 31.8 30.4 29.3 28.8 29.2 31.3 34.1 37.9 49.3 64.1 63.5 51.9 48.1 23.4 24.7 26.0 27.1 28.4 29.0 29.3 29.6 30.1 30.7 31.2 31.6 31.7 31.5 30.8 30.0 29.2 28.8 30.1 32.6 35.8 44.1 60.9 69.3 58.9 44.3 23.7 24.9 25.9 26.5 27.7 28.5 29.1 29.7 30.7 31.2 31.2 31.0 30.8 30.6 30.8 30.9 30.1 29.1 29.2 30.7 33.1 38.1 51.9 67.6 67.6 51.4 23.6 24.9 25.8 26.2 27.2 28.4 29.3 30.2 31.5 32.0 31.8 31.1 30.0 29.2 29.7 30.7 30.8 29.8 29.3 29.9 31.2 33.7 42.0 58.7 68.9 55.8 23.4 24.8 25.8 26.1 26.9 28.1 29.4 30.5 31.9 32.6 32.4 31.6 30.1 28.6 28.2 29.3 30.3 30.0 29.7 30.1 30.7 31.9 36.1 48.6 61.6 54.0 23.2 24.5 25.6 26.2 26.8 27.8 29.5 30.9 32.2 32.9 32.9 32.1 30.6 28.8 27.8 28.0 29.1 29.8 29.9 30.4 30.8 31.4 34.2 41.8 52.4 50.3 23.0 24.2 25.2 25.9 26.7 27.9 29.9 31.3 32.1 33.0 33.4 32.9 31.4 29.6 28.4 28.0 28.5 29.5 30.2 30.8 31.1 31.2 32.8 37.7 45.6 46.9 23.2 24.2 24.9 25.6 26.5 27.9 30.1 31.5 31.9 32.6 33.4 33.5 32.6 31.2 30.1 29.3 29.0 29.5 30.1 30.7 30.8 30.7 31.5 34.4 40.0 43.4 23.7 24.5 24.9 25.4 26.3 27.6 29.7 31.1 31.7 32.2 32.7 33.0 33.2 32.8 32.4 31.6 30.6 30.0 29.8 29.8 29.6 29.5 30.1 32.3 35.9 39.5 24.3 24.9 25.1 25.3 26.1 27.4 29.1 30.5 31.5 32.2 32.3 31.9 32.3 32.8 33.4 33.3 32.4 31.1 30.0 29.2 28.6 28.3 29.0 31.6 34.6 36.6 24.2 25.1 25.5 25.5 26.2 27.2 28.5 30.0 31.4 32.3 32.3 31.4 30.9 31.4 32.3 33.0 33.1 32.3 30.9 29.5 28.4 27.8 28.6 31.8 35.7 36.7 24.5 25.6 26.0 25.7 26.1 26.8 27.7 29.4 31.2 32.4 32.6 31.5 30.5 30.2 31.0 32.2 33.1 33.0 31.8 30.2 28.7 27.9 28.4 31.7 36.8 39.4 24.7 25.9 26.5 26.0 26.1 26.2 26.8 28.6 30.5 31.9 32.6 32.1 31.0 30.0 30.3 31.6 33.2 33.9 33.0 31.3 29.9 28.9 28.8 30.5 35.1 40.5 25.1 26.5 27.2 26.4 26.3 26.2 26.4 27.8 29.7 31.3 32.5 32.8 32.2 30.8 30.0 31.2 33.7 35.3 34.4 32.2 30.8 30.3 30.0 30.5 33.1 37.8 24.7 26.5 27.5 26.8 26.7 26.6 26.6 27.4 28.7 30.3 31.7 32.6 32.9 32.0 30.6 30.7 33.1 35.6 35.1 32.5 30.9 30.9 31.0 31.0 32.0 33.3 24.7 26.4 27.6 27.1 27.1 27.2 27.4 27.5 27.9 29.0 30.6 32.2 33.3 33.3 31.9 30.5 31.7 34.9 35.8 33.6 32.1 32.3 32.5 32.2 32.0 31.1 24.9 26.4 27.4 27.1 27.1 27.4 27.8 27.9 28.0 28.4 29.5 31.2 33.1 34.2 33.7 31.9 31.5 34.1 36.1 35.0 33.5 33.3 33.2 32.7 31.7 30.9 24.9 26.3 27.4 27.3 27.3 27.8 28.4 28.6 28.4 28.2 28.7 30.3 32.8 34.8 35.5 34.1 32.5 33.6 36.0 36.2 34.5 33.2 32.2 30.9 29.5 30.0 25.2 26.4 27.5 27.4 27.4 27.9 28.6 29.1 29.0 28.6 28.5 29.6 31.9 34.4 35.7 35.1 33.7 33.7 35.3 36.1 34.8 32.9 31.2 29.4 27.9 29.2 25.2 26.5 27.6 27.6 27.7 28.1 28.9 29.7 30.2 29.5 28.6 28.7 30.3 33.0 35.0 35.1 33.9 33.1 33.8 34.8 34.4 33.4 31.8 29.4 27.6 28.9 25.1 26.3 27.4 27.5 27.8 28.2 29.0 30.0 30.9 30.5 29.3 28.4 28.8 30.6 32.5 33.2 32.3 31.3 31.9 33.2 33.6 33.3 32.5 30.6 28.6 29.1 24.5 25.9 26.9 27.1 27.5 28.0 28.6 29.5 30.7 31.0 30.2 28.5 27.5 27.8 28.9 30.3 30.5 30.2 30.9 32.1 32.5 32.2 31.7 30.9 29.6 29.4 23.3 24.7 25.7 26.0 26.4 26.9 27.6 28.4 29.3 29.9 29.7 28.2 26.6 26.1 26.4 27.2 27.9 28.4 29.4 30.8 31.8 31.7 31.0 30.5 29.9 29.1 21.7 23.3 24.4 24.7 25.1 25.5 26.3 27.0 27.8 28.4 28.5 27.4 25.8 25.2 25.2 25.3 25.9 26.3 27.6 29.4 30.9 31.2 30.4 29.9 29.5 28.6 
</DataArray>
</PointData>
</Piece>
</ImageData>
</VTKFile>
