<?xml version="1.0"?>
<VTKFile type="RectilinearGrid" version="1.0" byte_order="LittleEndian" header_type="UInt64">
<RectilinearGrid WholeExtent="0 25 0 25 0 15">
<Piece Extent="0 25 0 25 0 15">
<Coordinates>
<DataArray type="Float64" Name="Array X-Axis" format="ascii" RangeMin="0.0" RangeMax="15.0">
0.0 0.6 1.2 1.8 2.4 3.0 3.6 4.2 4.8 5.4 6.0 6.6 7.2 7.8 8.4 9.0 9.6 10.2 10.8 11.4 12.0 12.6 13.2 13.8 14.4 15.0 
</DataArray>
<DataArray type="Float64" Name="Array Y-Axis" format="ascii" RangeMin="0.0" RangeMax="15.0">
0.0 0.6 1.2 1.8 2.4 3.0 3.6 4.2 4.8 5.4 6.0 6.6 7.2 7.8 8.4 9.0 9.6 10.2 10.8 11.4 12.0 12.6 13.2 13.8 14.4 15.0 
</DataArray>
<DataArray type="Float64" Name="Array Z-Axis" format="ascii" RangeMin="0.0" RangeMax="9.0">
0.0 0.6 1.2 1.8 2.4 3.0 3.6 4.2 4.8 5.4 6.0 6.6 7.2 7.8 8.4 9.0 
</DataArray>
</Coordinates>
<PointData>
<DataArray Name="SOOT DENSITY" NumberOfComponents="1" type="UInt8" format="ascii">
0 0 0 0 0 0 0 0 0 0 0 0 0 0 0 0 0 0 0 0 0 0 0 0 0 0 0 0 0 0 0 0 0 0 0 0 0 0 0 0 0 0 0 0 0 0 0 0 0 0 0 0 0 0 0 0 0 0 0 0 0 0 0 0 0 0 0 0 0 0 0 0 0 0 0 0 0 0 0 0 0 0 0 0 0 0 0 0 0 0 0 0 0 0 0 0 0 0 0 0 0 0 0 0 0 0 0 0 0 0 0 0 0 0 0 0 0 0 0 0 0 0 0 0 0 0 0 0 0 0 0 0 0 0 0 0 0 0 0 0 0 0 0 0 0 0 0 0 0 0 0 0 0 0 0 0 0 0 0 0 0 0 0 0 0 0 0 0 0 0 0 0 0 0 0 0 0 0 0 0 0 0 0 0 0 0 0 0 0 0 0 0 0 0 0 0 0 0 0 0 0 0 0 0 0 0 0 0 0 0 0 0 0 0 0 0 0 0 0 0 0 0 0 0 0 0 0 0 0 0 0 0 0 0 0 0 0 0 0 0 0 0 0 0 0 0 0 0 0 0 0 0 0 0 0 0 0 0 0 0 0 0 0 0 0 0 0 0 0 0 0 0 0 0 0 0 0 0 0 0 0 0 0 0 0 0 0 0 0 0 0 0 0 0 0 0 0 0 0 0 0 0 0 0 0 0 0 0 0 0 0 0 0 0 0 0 0 0 0 0 0 0 0 0 0 0 0 0 0 0 0 0 0 0 0 0 0 0 0 0 0 0 0 0 0 0 0 0 0 0 0 0 0 0 0 0 0 0 0 0 0 0 0 0 0 0 0 0 0 0 0 0 0 0 0 0 0 0 0 0 0 0 0 0 0 0 0 0 0 0 0 0 0 0 0 0 0 0 0 0 0 0 0 0 0 0 0 0 0 0 0 0 0 0 0 0 0 0 0 0 0 0 0 0 0 0 0 0 0 0 0 0 0 0 0 0 0 0 0 0 0 0 0 0 0 0 0 0 0 0 0 0 0 0 0 0 0 0 0 0 0 0 0 0 0 0 0 0 0 0 0 0 0 0 0 0 0 0 0 0 0 0 0 0 0 0 0 0 0 0 0 0 0 0 0 0 0 0 0 0 0 0 0 0 0 0 0 0 0 0 0 0 0 0 0 0 0 0 0 0 0 0 0 0 0 0 0 0 0 0 0 0 0 0 0 0 0 0 0 0 0 0 0 0 0 0 0 0 0 0 0 0 0 0 0 0 0 0 0 0 0 0 0 0 0 0 0 0 0 0 0 0 0 0 0 0 0 0 0 0 0 0 0 0 0 0 0 0 0 0 0 0 0 0 0 0 0 0 0 0 0 0 0 0 0 0 0 0 0 0 0 0 0 0 0 0 0 0 0 0 0 0 0 0 0 0 0 0 0 0 0 0 0 0 0 0 0 0 0 0 0 0 0 0 0 0 0 0 0 0 0 0 0 0 0 0 0 0 0 0 0 0 0 0 0 0 0 0 0 0 0 0 0 0 0 0 0 0 0 0 0 0 0 0 0 0 0 0 0 0 0 0 0 0 0 0 0 0 0 0 0 0 0 0 0 0 0 0 0 0 0 0 0 0 0 0 0 0 0 0 0 0 0 0 0 0 0 0 0 0 0 0 0 0 0 0 0 0 0 0 0 0 0 0 0 0 0 0 0 0 0 0 0 0 0 0 0 0 0 0 0 0 0 0 0 0 0 0 0 0 0 0 0 0 0 0 0 0 0 0 0 0 0 0 0 0 0 0 0 0 0 0 0 0 0 0 0 0 0 0 0 0 0 0 0 0 0 0 0 0 0 0 0 0 0 0 0 0 0 0 0 0 0 0 0 0 0 0 0 0 0 0 0 0 0 0 0 0 0 0 0 0 0 0 0 0 0 0 0 0 0 0 0 0 0 0 0 0 0 0 0 0 0 0 0 0 0 0 0 0 0 0 0 0 0 0 0 0 0 0 0 0 0 0 0 0 0 0 0 0 0 0 0 0 0 0 0 0 0 0 0 0 0 0 0 0 0 0 0 0 0 0 0 0 0 0 0 0 0 0 0 0 0 0 0 0 0 0 0 0 0 0 0 0 0 0 0 0 0 0 0 0 0 0 0 0 0 0 0 0 0 0 0 0 0 0 0 0 0 0 0 0 0 0 0 0 0 0 0 0 0 0 0 0 0 0 0 0 0 0 0 0 0 0 0 0 0 0 0 0 0 0 0 0 0 0 0 0 0 0 0 0 0 0 0 0 0 0 0 0 0 0 0 0 0 0 0 0 0 0 0 0 0 0 0 0 0 0 0 0 0 0 0 0 0 0 0 0 0 0 0 0 0 0 0 0 0 0 0 0 0 0 0 0 0 0 0 0 0 0 0 0 0 0 0 0 0 0 0 0 0 0 0 0 0 0 0 0 0 0 0 0 0 0 0 0 0 0 0 0 0 0 0 0 0 0 0 0 0 0 0 0 0 0 0 0 0 0 0 0 0 0 0 0 0 0 0 0 0 0 0 0 0 0 0 0 0 0 0 0 0 0 0 0 0 0 0 0 0 0 0 0 0 0 0 0 0 0 0 0 0 0 0 0 0 0 0 0 0 0 0 0 0 0 0 0 0 0 0 0 0 0 0 0 0 0 0 0 0 0 0 0 0 0 0 0 0 0 0 0 0 0 0 0 0 0 0 0 0 0 0 0 0 0 0 0 0 0 0 0 0 0 0 0 0 0 0 0 0 0 0 0 0 0 0 0 0 0 0 0 0 0 0 0 0 0 0 0 0 0 0 0 0 0 0 0 0 1 0 0 0 0 0 0 0 0 0 0 0 0 0 0 0 0 0 0 0 0 0 0 0 0 0 1 0 0 0 0 0 0 0 0 0 0 0 0 0 0 0 0 0 0 0 0 0 0 0 0 0 0 0 0 0 0 0 0 0 0 0 0 0 0 0 0 0 0 0 0 0 0 0 0 0 0 0 0 0 0 0 0 0 0 0 0 0 0 0 0 0 0 0 0 0 0 0 0 0 0 0 0 0 0 0 0 0 0 0 0 0 0 0 0 0 0 0 0 0 0 0 0 0 0 0 0 0 0 0 0 0 0 0 0 0 0 0 0 0 0 0 0 0 0 0 0 0 0 0 0 0 0 0 0 0 0 0 0 0 0 0 0 0 0 0 0 0 0 0 0 0 0 0 0 0 0 0 0 0 0 0 0 0 0 0 0 0 0 0 0 0 0 0 0 0 0 0 0 0 0 0 0 0 0 0 0 0 0 0 0 0 0 0 0 0 0 0 0 0 0 0 0 0 0 0 0 0 0 0 0 0 0 0 0 0 0 0 0 0 0 0 0 0 0 0 0 0 0 0 0 0 0 0 0 0 0 0 0 0 0 0 0 0 0 0 0 0 0 0 0 0 0 0 0 0 0 0 0 0 0 0 0 0 0 0 0 0 0 0 0 0 0 0 0 0 0 0 0 0 0 0 0 0 0 0 0 0 0 0 0 0 0 0 0 0 0 0 0 0 0 0 0 0 0 0 0 0 0 0 0 0 0 0 0 0 0 0 0 0 0 0 0 0 0 0 0 0 0 0 0 0 0 0 0 0 0 0 0 0 0 0 0 0 0 0 0 0 0 0 0 0 0 0 0 0 0 0 0 0 0 0 0 0 0 0 0 0 0 0 0 0 0 0 0 0 0 0 0 0 0 0 0 0 0 0 0 0 0 0 0 0 0 0 0 0 0 0 0 0 0 0 0 0 0 0 0 0 0 0 0 0 0 0 0 0 0 0 0 0 0 0 0 0 0 0 0 0 0 0 0 0 0 0 0 0 0 0 0 0 0 0 0 0 0 0 0 0 0 0 0 0 0 0 0 0 0 0 0 0 0 0 0 0 0 0 0 0 0 0 0 0 0 0 0 0 0 0 0 0 0 0 0 0 0 0 0 0 0 0 0 0 0 0 0 0 0 0 0 0 0 0 0 0 0 0 0 0 0 0 0 0 0 0 0 0 0 0 0 0 0 0 0 0 0 0 0 0 0 0 0 0 0 0 0 0 0 0 0 0 0 0 0 0 0 0 0 0 0 0 0 0 0 0 0 0 0 0 0 0 0 0 0 0 0 0 0 0 0 0 0 0 0 0 0 0 0 0 0 0 0 0 0 0 0 0 0 0 0 0 0 0 0 0 0 0 0 0 0 0 0 0 0 0 0 0 0 0 0 0 0 0 0 0 0 0 0 0 0 0 0 0 0 0 0 0 0 0 0 0 1 0 0 0 0 0 0 0 0 0 0 0 0 0 0 0 0 0 0 0 0 0 0 0 0 0 2 0 0 0 0 0 0 0 0 0 0 0 0 0 0 0 0 0 0 0 0 0 0 0 0 0 2 0 0 0 0 0 0 0 0 0 0 0 0 0 0 0 0 0 0 0 0 0 0 0 0 0 1 0 0 0 0 0 0 0 0 0 0 0 0 0 0 0 0 0 0 0 0 0 0 0 0 0 0 0 0 0 0 0 0 0 0 0 0 0 0 0 0 0 0 0 0 0 0 0 0 0 0 0 0 0 0 0 0 0 0 0 0 0 0 0 0 0 0 0 0 0 0 0 0 0 0 0 0 0 0 0 0 0 0 0 0 0 0 0 0 0 0 0 0 0 0 0 0 0 0 0 0 0 0 0 0 0 0 0 0 0 0 0 0 0 0 0 0 0 0 0 0 0 0 0 0 0 0 0 0 0 0 0 0 0 0 0 0 0 0 0 0 0 0 0 0 0 0 0 0 0 0 0 0 0 0 0 0 0 0 0 0 0 0 0 0 0 0 0 0 0 0 0 0 0 0 0 0 0 0 0 0 0 0 0 0 0 0 0 0 0 0 0 0 0 0 0 0 0 0 0 0 0 0 0 0 0 0 0 0 0 0 0 0 0 0 0 0 0 0 0 0 0 0 0 0 0 0 0 0 0 0 0 0 0 0 0 0 0 0 0 0 0 0 0 0 0 0 0 0 0 0 0 0 0 0 0 0 0 0 0 0 0 0 0 0 0 0 0 0 0 0 0 0 0 0 0 0 0 0 0 0 0 0 0 0 0 0 0 0 0 0 0 0 0 0 0 0 0 0 0 0 0 0 0 0 0 0 0 0 0 0 0 0 0 0 0 0 0 0 0 0 0 0 0 0 0 0 0 0 0 0 0 0 0 0 0 0 0 0 0 0 0 0 0 0 0 0 0 0 0 0 0 0 0 0 0 0 0 0 0 0 0 0 0 0 0 0 0 0 0 0 0 0 0 0 0 0 0 0 0 0 0 0 0 0 0 0 0 0 0 0 0 0 0 0 0 0 0 0 0 0 0 0 0 0 0 0 0 0 0 0 0 0 0 0 0 0 0 0 0 0 0 0 0 0 0 0 0 0 0 0 0 0 0 0 0 0 0 0 0 0 0 0 0 0 0 0 0 0 0 0 0 0 0 0 0 0 0 0 0 0 0 0 0 0 0 0 0 0 0 0 0 0 0 0 0 0 0 0 0 0 0 0 0 0 0 0 0 0 0 0 0 0 0 0 0 0 0 0 0 0 0 0 0 0 0 0 0 0 0 0 0 0 0 0 0 0 0 0 0 0 0 0 0 0 0 0 0 0 0 0 0 0 0 0 0 0 0 0 0 0 0 0 0 0 0 1 0 0 0 0 0 0 0 0 0 0 0 0 0 0 0 0 0 0 0 0 0 0 0 0 3 12 0 0 0 0 0 0 0 0 0 0 0 0 0 0 0 0 0 0 0 0 0 0 0 0 5 25 0 0 0 0 0 0 0 0 0 0 0 0 0 0 0 0 0 0 0 0 0 0 0 0 3 24 0 0 0 0 0 0 0 0 0 0 0 0 0 0 0 0 0 0 0 0 0 0 0 0 2 14 0 0 0 0 0 0 0 0 0 0 0 0 0 0 0 0 0 0 0 0 0 0 0 0 1 7 0 0 0 0 0 0 0 0 0 0 0 0 0 0 0 0 0 0 0 0 0 0 0 0 1 2 0 0 0 0 0 0 0 0 0 0 0 0 0 0 0 0 0 0 0 0 0 0 0 0 0 0 0 0 0 0 0 0 0 0 0 0 0 0 0 0 0 0 0 0 0 0 0 0 0 0 0 0 0 0 0 0 0 0 0 0 0 0 0 0 0 0 0 0 0 0 0 0 0 0 0 0 0 0 0 0 0 0 0 0 0 0 0 0 0 0 0 0 0 0 0 0 0 0 0 0 0 0 0 0 0 0 0 0 0 0 0 0 0 0 0 0 0 0 0 0 0 0 0 0 0 0 0 0 0 0 0 0 0 0 0 0 0 0 0 0 0 0 0 0 0 0 0 0 0 0 0 0 0 0 0 0 0 0 0 0 0 0 0 0 0 0 0 0 0 0 0 0 0 0 0 0 0 0 0 0 0 0 0 0 0 0 0 0 0 0 0 0 0 0 0 0 0 0 0 0 0 0 0 0 0 0 0 0 0 0 0 0 0 0 0 0 0 0 0 0 0 0 0 0 0 0 0 0 0 0 0 0 0 0 0 0 0 0 0 0 0 0 0 0 0 0 0 0 0 0 0 0 0 0 0 0 0 0 0 0 0 0 0 0 0 0 0 0 0 0 0 0 0 0 0 0 0 0 0 0 0 0 0 0 0 0 0 0 0 0 0 0 0 0 0 0 0 0 0 0 0 0 0 0 0 0 0 0 0 0 0 0 0 0 0 0 0 0 0 0 0 0 0 0 0 0 0 0 0 0 0 0 0 0 0 0 0 0 0 0 0 0 0 0 0 0 0 0 0 0 0 0 0 0 0 0 0 0 0 0 0 0 0 0 0 0 0 0 0 0 0 0 0 0 0 0 0 0 0 0 0 0 0 0 0 0 0 0 0 0 0 0 0 0 0 0 0 0 0 0 0 0 0 0 0 0 0 0 0 0 0 0 0 0 0 0 0 0 0 0 0 0 0 0 0 0 0 0 0 0 0 0 0 0 0 0 0 0 0 0 0 0 0 0 0 0 0 0 0 0 0 0 0 0 0 0 0 0 0 0 0 0 0 0 0 0 0 0 0 0 0 0 0 0 0 0 0 0 0 0 0 0 0 0 0 0 0 0 0 0 0 0 1 2 0 0 0 0 0 0 0 0 0 0 0 0 0 0 0 0 0 0 0 0 0 0 0 1 2 5 0 0 0 0 0 0 0 0 0 0 0 0 0 0 0 0 0 0 0 0 0 0 0 1 5 30 0 0 0 0 0 0 0 0 0 0 0 0 0 0 0 0 0 0 0 0 0 0 0 1 12 75 0 0 0 0 0 0 0 0 0 0 0 0 0 0 0 0 0 0 0 0 0 0 0 1 12 86 0 0 0 0 0 0 0 0 0 0 0 0 0 0 0 0 0 0 0 0 0 0 0 1 10 53 0 0 0 0 0 0 0 0 0 0 0 0 0 0 0 0 0 0 0 0 0 0 0 1 13 27 0 0 0 0 0 0 0 0 0 0 0 0 0 0 0 0 0 0 0 0 0 0 0 0 10 15 0 0 0 0 0 0 0 0 0 0 0 0 0 0 0 0 0 0 0 0 0 0 0 0 1 3 0 0 0 0 0 0 0 0 0 0 0 0 0 0 0 0 0 0 0 0 0 0 0 0 0 0 0 0 0 0 0 0 0 0 0 0 0 0 0 0 0 0 0 0 0 0 0 0 0 0 0 0 0 0 0 0 0 0 0 0 0 0 0 0 0 0 0 0 0 0 0 0 0 0 0 0 0 0 0 0 0 0 0 0 0 0 0 0 0 0 0 0 0 0 0 0 0 0 0 0 0 0 0 0 0 0 0 0 0 0 0 0 0 0 0 0 0 0 0 0 0 0 0 0 0 0 0 0 0 0 0 0 0 0 0 0 0 0 0 0 0 0 0 0 0 0 0 0 0 0 0 0 0 0 0 0 0 0 0 0 0 0 0 0 0 0 0 0 0 0 0 0 0 0 0 0 0 0 0 0 0 0 0 0 0 0 0 0 0 0 0 0 0 0 0 0 0 0 0 0 0 0 0 0 0 0 0 0 0 0 0 0 0 0 0 0 0 0 0 0 0 0 0 0 0 0 0 0 0 0 0 0 0 0 0 0 0 0 0 0 0 0 0 0 0 0 0 0 0 0 0 0 0 0 0 0 0 0 0 0 0 0 0 0 0 0 0 0 0 0 0 0 0 0 0 0 0 0 0 0 0 0 0 0 0 0 0 0 0 0 0 0 0 0 0 0 0 0 0 0 0 0 0 0 0 0 0 0 0 0 0 0 0 0 0 0 0 0 0 0 0 0 0 0 0 0 0 0 0 0 0 0 0 0 0 0 0 0 0 0 0 0 0 0 0 0 0 0 0 0 0 0 0 0 0 0 0 0 0 0 0 0 0 0 0 0 0 0 0 0 0 0 0 0 0 0 0 0 0 0 0 0 0 0 0 0 0 0 0 0 0 0 0 0 0 0 0 0 0 0 0 0 0 0 0 0 0 0 0 0 0 0 0 0 0 0 0 0 0 0 0 0 0 0 0 0 0 0 0 0 0 0 0 0 0 0 0 0 0 1 3 6 0 0 0 0 0 0 0 0 0 0 0 0 0 0 0 0 0 0 0 0 0 0 0 5 12 15 0 0 0 0 0 0 0 0 0 0 0 0 0 0 0 0 0 0 0 0 0 0 2 9 15 25 0 0 0 0 0 0 0 0 0 0 0 0 0 0 0 0 0 0 0 0 0 0 2 8 34 111 0 0 0 0 0 0 0 0 0 0 0 0 0 0 0 0 0 0 0 0 0 0 2 16 87 192 0 0 0 0 0 0 0 0 0 0 0 0 0 0 0 0 0 0 0 0 0 0 1 21 108 202 0 0 0 0 0 0 0 0 0 0 0 0 0 0 0 0 0 0 0 0 0 0 1 29 101 163 0 0 0 0 0 0 0 0 0 0 0 0 0 0 0 0 0 0 0 0 0 0 1 31 100 118 0 0 0 0 0 0 0 0 0 0 0 0 0 0 0 0 0 0 0 0 0 0 0 12 77 96 0 0 0 0 0 0 0 0 0 0 0 0 0 0 0 0 0 0 0 0 0 0 0 1 27 44 0 0 0 0 0 0 0 0 0 0 0 0 0 0 0 0 0 0 0 0 0 0 0 0 0 0 0 0 0 0 0 0 0 0 0 0 0 0 0 0 0 0 0 0 0 0 0 0 0 0 0 0 0 0 0 0 0 0 0 0 0 0 0 0 0 0 0 0 0 0 0 0 0 0 0 0 0 0 0 0 0 0 0 0 0 0 0 0 0 0 0 0 0 0 0 0 0 0 0 0 0 0 0 0 0 0 0 0 0 0 0 0 0 0 0 0 0 0 0 0 0 0 0 0 0 0 0 0 0 0 0 0 0 0 0 0 0 0 0 0 0 0 0 0 0 0 0 0 0 0 0 0 0 0 0 0 0 0 0 0 0 0 0 0 0 0 0 0 0 0 0 0 0 0 0 0 0 0 0 0 0 0 0 0 0 0 0 0 0 0 0 0 0 0 0 0 0 0 0 0 0 0 0 0 0 0 0 0 0 0 0 0 0 0 0 0 0 0 0 0 0 0 0 0 0 0 0 0 0 0 0 0 0 0 0 0 0 0 0 0 0 0 0 0 0 0 0 0 0 0 0 0 0 0 0 0 0 0 0 0 0 0 0 0 0 0 0 0 0 0 0 0 0 0 0 0 0 0 0 0 0 0 0 0 0 0 0 0 0 0 0 0 0 0 0 0 0 0 0 0 0 0 0 0 0 0 0 0 0 0 0 0 0 0 0 0 0 0 0 0 0 0 0 0 0 0 0 0 0 0 0 0 0 0 0 0 0 0 0 0 0 0 0 0 0 0 0 0 0 0 0 0 0 0 0 0 0 0 0 0 0 0 0 0 0 0 0 0 0 0 0 0 0 0 0 0 0 0 0 0 0 0 0 0 0 0 0 0 0 0 0 0 0 0 0 0 0 0 0 0 0 0 0 0 0 0 0 0 0 0 0 0 0 0 1 1 0 0 0 0 0 0 0 0 0 0 0 0 0 0 0 0 0 0 0 0 0 0 0 1 13 20 0 0 0 0 0 0 0 0 0 0 0 0 0 0 0 0 0 0 0 0 0 0 1 16 40 47 0 0 0 0 0 0 0 0 0 0 0 0 0 0 0 0 0 0 0 0 0 0 5 34 54 63 0 0 0 0 0 0 0 0 0 0 0 0 0 0 0 0 0 0 0 0 0 0 10 50 87 152 0 0 0 0 0 0 0 0 0 0 0 0 0 0 0 0 0 0 0 0 0 1 22 83 169 231 0 0 0 0 0 0 0 0 0 0 0 0 0 0 0 0 0 0 0 0 0 1 21 78 195 243 0 0 0 0 0 0 0 0 0 0 0 0 0 0 0 0 0 0 0 0 0 1 6 60 187 233 0 0 0 0 0 0 0 0 0 0 0 0 0 0 0 0 0 0 0 0 0 0 1 53 171 208 0 0 0 0 0 0 0 0 0 0 0 0 0 0 0 0 0 0 0 0 0 0 0 18 118 164 0 0 0 0 0 0 0 0 0 0 0 0 0 0 0 0 0 0 0 0 0 0 0 1 40 72 0 0 0 0 0 0 0 0 0 0 0 0 0 0 0 0 0 0 0 0 0 0 0 0 0 0 0 0 0 0 0 0 0 0 0 0 0 0 0 0 0 0 0 0 0 0 0 0 0 0 0 0 0 0 0 0 0 0 0 0 0 0 0 0 0 0 0 0 0 0 0 0 0 0 0 0 0 0 0 0 0 0 0 0 0 0 0 0 0 0 0 0 0 0 0 0 0 0 0 0 0 0 0 0 0 0 0 0 0 0 0 0 0 0 0 0 0 0 0 0 0 0 0 0 0 0 0 0 0 0 0 0 0 0 0 0 0 0 0 0 0 0 0 0 0 0 0 0 0 0 0 0 0 0 0 0 0 0 0 0 0 0 0 0 0 0 0 0 0 0 0 0 0 0 0 0 0 0 0 0 0 0 0 0 0 0 0 0 0 0 0 0 0 0 0 0 0 0 0 0 0 0 0 0 0 0 0 0 0 0 0 0 0 0 0 0 0 0 0 0 0 0 0 0 0 0 0 0 0 0 0 0 0 0 0 0 0 0 0 0 0 0 0 0 0 0 0 0 0 0 0 0 0 0 0 0 0 0 0 0 0 0 0 0 0 0 0 0 0 0 0 0 0 0 0 0 0 0 0 0 0 0 0 0 0 0 0 0 0 0 0 0 0 0 0 0 0 0 0 0 0 0 0 0 0 0 0 0 0 0 0 0 0 0 0 0 0 0 0 0 0 0 0 0 0 0 0 0 0 0 0 0 0 0 0 0 0 0 0 0 0 0 0 0 0 0 0 0 0 0 0 0 0 0 0 0 0 0 0 0 0 0 0 0 0 0 0 0 0 0 0 0 0 0 0 0 0 0 0 0 0 0 0 0 0 0 0 0 0 0 0 0 0 0 0 0 0 0 0 0 0 0 0 0 0 0 0 0 0 0 0 0 0 0 1 2 0 0 0 0 0 0 0 0 0 0 0 0 0 0 0 0 0 0 0 0 0 0 0 3 27 36 0 0 0 0 0 0 0 0 0 0 0 0 0 0 0 0 0 0 0 0 0 0 1 29 85 109 0 0 0 0 0 0 0 0 0 0 0 0 0 0 0 0 0 0 0 0 0 0 12 69 121 145 0 0 0 0 0 0 0 0 0 0 0 0 0 0 0 0 0 0 0 0 0 1 20 94 143 178 0 0 0 0 0 0 0 0 0 0 0 0 0 0 0 0 0 0 0 0 0 2 37 139 206 237 0 0 0 0 0 0 0 0 0 0 0 0 0 0 0 0 0 0 0 1 4 6 38 128 219 247 0 0 0 0 0 0 0 0 0 0 0 0 0 0 0 0 0 0 0 1 4 6 12 61 195 241 0 0 0 0 0 0 0 0 0 0 0 0 0 0 0 0 0 0 0 0 1 1 3 33 166 222 0 0 0 0 0 0 0 0 0 0 0 0 0 0 0 0 0 0 0 0 0 0 1 10 94 160 0 0 0 0 0 0 0 0 0 0 0 0 0 0 0 0 0 0 0 0 0 0 0 2 23 53 0 0 0 0 0 0 0 0 0 0 0 0 0 0 0 0 0 0 0 0 0 0 0 0 0 0 0 0 0 0 0 0 0 0 0 0 0 0 0 0 0 0 0 0 0 0 0 0 0 0 0 0 0 0 0 0 0 0 0 0 0 0 0 0 0 0 0 0 0 0 0 0 0 0 0 0 0 0 0 0 0 0 0 0 0 0 0 0 0 0 0 0 0 0 0 0 0 0 0 0 0 0 0 0 0 0 0 0 0 0 0 0 0 0 0 0 0 0 0 0 0 0 0 0 0 0 0 0 0 0 0 0 0 0 0 0 0 0 0 0 0 0 0 0 0 0 0 0 0 0 0 0 0 0 0 0 0 0 0 0 0 0 0 0 0 0 0 0 0 0 0 0 0 0 0 0 0 0 0 0 0 0 0 0 0 0 0 0 0 0 0 0 0 0 0 0 0 0 0 0 0 0 0 0 0 0 0 0 0 0 0 0 0 0 0 0 0 0 0 0 0 0 0 0 0 0 0 0 0 0 0 0 0 0 0 0 0 0 0 0 0 0 0 0 0 0 0 0 0 0 0 0 0 0 0 0 0 0 0 0 0 0 0 0 0 0 0 0 0 0 0 0 0 0 0 0 0 0 0 0 0 0 0 0 0 0 0 0 0 0 0 0 0 0 0 0 0 0 0 0 0 0 0 0 0 0 0 0 0 0 0 0 0 0 0 0 0 0 0 0 0 0 0 0 0 0 0 0 0 0 0 0 0 0 0 0 0 0 0 0 0 0 0 0 0 0 0 0 0 0 0 0 0 0 0 0 0 0 0 0 0 0 0 0 0 0 0 0 0 0 0 0 0 0 0 0 0 0 0 0 0 0 0 0 0 0 0 0 0 0 0 0 0 0 0 0 0 0 0 0 0 0 0 0 0 0 0 0 0 0 0 0 0 0 1 2 0 0 0 0 0 0 0 0 0 0 0 0 0 0 0 0 0 0 0 0 0 0 0 3 27 35 0 0 0 0 0 0 0 0 0 0 0 0 0 0 0 0 0 0 0 0 0 0 1 33 108 129 0 0 0 0 0 0 0 0 0 0 0 0 0 0 0 0 0 0 0 0 0 1 22 96 173 197 0 0 0 0 0 0 0 0 0 0 0 0 0 0 0 0 0 0 0 0 0 1 29 113 192 224 0 0 0 0 0 0 0 0 0 0 0 0 0 0 0 0 0 0 0 0 1 3 30 135 220 243 0 0 0 0 0 0 0 0 0 0 0 0 0 0 0 0 0 0 0 1 7 13 34 131 219 244 0 0 0 0 0 0 0 0 0 0 0 0 0 0 0 0 0 0 0 1 8 15 20 60 170 227 0 0 0 0 0 0 0 0 0 0 0 0 0 0 0 0 0 0 0 0 1 5 12 25 118 188 0 0 0 0 0 0 0 0 0 0 0 0 0 0 0 0 0 0 0 0 0 2 5 19 74 124 0 0 0 0 0 0 0 0 0 0 0 0 0 0 0 0 0 0 0 0 0 0 1 10 41 57 0 0 0 0 0 0 0 0 0 0 0 0 0 0 0 0 0 0 0 0 0 0 0 0 0 0 0 0 0 0 0 0 0 0 0 0 0 0 0 0 0 0 0 0 0 0 0 0 0 0 0 0 0 0 0 0 0 0 0 0 0 0 0 0 0 0 0 0 0 0 0 0 0 0 0 0 0 0 0 0 0 0 0 0 0 0 0 0 0 0 0 0 0 0 0 0 0 0 0 0 1 1 0 0 0 0 0 0 0 0 0 0 0 0 0 0 0 0 0 0 0 0 0 0 0 1 1 1 1 0 0 0 0 0 0 0 0 0 0 0 0 0 0 0 0 0 0 0 0 0 1 1 1 1 1 0 0 0 0 0 0 0 0 0 0 0 0 0 0 0 0 0 0 0 0 0 1 1 1 1 1 1 0 0 0 0 0 0 0 0 0 0 0 0 0 0 0 0 0 0 0 0 0 1 1 1 1 1 0 0 0 0 0 0 0 0 0 0 0 0 0 0 0 0 0 0 0 0 0 0 1 1 1 2 0 0 0 0 0 0 0 0 0 0 0 0 0 0 0 0 0 0 0 0 0 0 0 1 1 2 0 0 0 0 0 0 0 0 0 0 0 0 0 0 0 0 0 0 0 0 0 0 0 0 1 1 0 0 0 0 0 0 0 0 0 0 0 0 0 0 0 0 0 0 0 0 0 0 0 0 1 1 0 0 0 0 0 0 0 0 0 0 0 0 0 0 0 0 0 0 0 0 0 0 0 0 1 1 0 0 0 0 0 0 0 0 0 0 0 0 0 0 0 0 0 0 0 0 0 0 0 0 1 1 0 0 0 0 0 0 0 0 0 0 0 0 0 0 0 0 0 0 0 0 0 0 0 0 0 1 0 0 0 0 0 0 0 0 0 0 0 0 0 0 0 0 0 0 0 0 0 0 0 0 1 8 0 0 0 0 0 0 0 0 0 0 0 0 0 0 0 0 0 0 0 0 0 1 1 3 17 31 0 0 0 0 0 0 0 0 0 0 0 0 0 0 0 0 0 0 0 0 1 1 3 24 84 99 0 0 0 0 0 0 0 0 0 0 0 0 0 0 0 0 0 0 0 0 1 3 22 97 177 199 0 0 0 0 0 0 0 0 0 0 0 0 0 0 0 0 0 0 0 0 1 5 30 112 205 236 0 0 0 0 0 0 0 0 0 0 0 0 0 0 0 0 0 0 0 0 2 8 25 98 214 244 0 0 0 0 0 0 0 0 0 0 0 0 0 0 0 0 0 0 0 1 9 21 35 99 208 238 0 0 0 0 0 0 0 0 0 0 0 0 0 0 0 0 0 0 0 1 9 24 40 73 156 200 0 0 0 0 0 0 0 0 0 0 0 0 0 0 0 0 0 0 0 0 2 16 41 65 106 150 0 0 0 0 0 0 1 1 0 0 0 0 0 0 0 0 0 0 0 0 1 9 27 55 107 135 0 0 0 0 0 0 0 0 0 0 0 0 0 0 0 0 0 0 0 1 1 1 5 28 101 112 0 0 0 0 0 0 0 0 0 0 0 0 0 0 0 0 0 0 0 0 0 1 1 0 0 1 0 1 1 1 1 1 1 1 1 1 1 1 1 1 1 1 1 1 1 1 1 2 2 1 1 2 0 1 1 1 1 1 1 1 1 1 1 1 1 1 1 1 1 1 1 2 3 3 3 3 3 3 0 1 1 1 1 1 2 2 2 2 2 2 2 2 2 2 2 2 2 3 3 3 4 5 5 4 0 1 1 1 1 1 1 2 2 1 1 2 2 2 3 3 4 4 4 4 4 4 5 6 6 5 0 0 1 1 1 1 1 1 1 1 1 1 2 2 3 4 4 4 5 4 3 4 5 6 6 4 0 0 1 1 1 1 1 1 1 1 1 1 2 2 3 3 3 4 4 3 3 4 5 4 5 8 0 0 1 1 1 1 1 1 1 1 1 1 1 2 3 3 3 3 3 2 2 3 4 5 12 23 0 0 1 1 1 1 1 1 1 1 1 1 1 2 2 3 2 2 2 2 2 3 4 7 19 31 0 0 1 1 1 1 1 1 1 1 1 1 1 2 2 2 2 2 2 2 2 2 4 7 18 24 0 0 1 1 1 2 1 1 1 1 1 1 1 1 2 1 1 1 1 1 1 2 4 8 15 18 0 0 1 1 2 2 2 1 1 1 1 1 1 1 1 1 1 1 1 1 2 4 6 8 12 13 0 0 1 1 2 2 2 2 1 1 1 1 1 1 1 1 1 1 1 2 3 5 8 9 11 12 0 0 1 1 2 2 2 2 1 1 1 1 1 1 1 1 1 2 2 3 3 5 6 7 9 11 0 0 1 1 2 2 3 2 2 2 1 1 1 2 2 2 2 2 2 3 3 3 4 4 6 14 0 0 1 1 2 2 2 3 2 2 2 2 2 2 2 2 2 2 3 2 2 3 3 5 18 51 0 0 1 1 1 2 2 2 2 2 2 2 2 2 2 2 2 2 2 2 3 8 12 15 46 90 0 1 1 1 2 2 2 2 2 2 2 2 2 2 2 2 2 2 2 4 11 21 24 34 73 111 0 1 1 1 1 2 2 1 1 1 1 1 2 2 3 2 2 2 2 4 13 24 33 79 143 182 0 1 1 1 1 1 1 1 1 1 1 1 2 3 3 2 1 1 2 3 8 20 36 97 183 225 0 1 2 2 2 2 1 1 1 1 1 1 2 3 3 2 1 1 1 3 12 27 44 94 192 234 0 1 2 3 3 3 2 2 1 1 1 1 1 1 2 4 4 3 2 3 19 40 59 104 187 225 0 1 2 3 3 3 3 2 2 2 1 1 1 1 2 4 4 3 2 2 14 35 62 106 159 190 0 1 1 2 3 4 4 3 2 2 2 1 2 1 1 2 2 2 2 2 5 24 72 118 142 169 0 1 1 1 2 4 4 3 2 2 1 1 1 2 2 2 2 2 3 3 4 16 55 99 151 180 0 0 1 1 2 3 4 3 2 1 1 1 1 1 2 2 2 2 4 8 10 10 15 48 150 165 1 2 2 2 2 3 3 4 4 4 3 3 5 7 8 10 12 11 8 7 20 31 27 25 28 25 2 5 7 7 8 9 10 11 11 10 8 8 8 9 11 14 17 17 16 19 25 27 23 22 26 34 3 8 10 11 11 12 14 14 13 12 10 10 10 12 15 18 19 19 20 23 25 21 18 20 27 35 3 8 11 12 12 13 14 14 13 11 11 10 11 15 19 21 19 18 19 23 24 22 21 26 34 35 2 7 11 12 12 13 13 13 13 11 10 11 13 19 24 27 26 24 24 25 23 22 24 31 36 30 2 7 11 11 12 12 12 13 12 11 11 12 16 23 29 31 30 29 28 24 20 20 24 30 31 29 2 7 11 11 11 12 12 12 11 11 11 14 20 26 29 29 29 27 25 20 17 19 22 28 42 56 3 8 11 11 12 12 12 12 11 11 11 14 20 24 25 26 26 24 21 17 16 19 23 41 73 93 3 8 11 11 11 13 13 13 12 12 12 14 18 20 21 23 24 23 19 15 16 20 29 54 87 96 3 9 11 11 12 14 15 15 15 13 13 15 17 17 17 19 20 19 16 13 15 24 39 58 78 75 3 9 10 10 12 15 18 18 17 15 14 15 15 14 14 15 16 15 12 12 17 32 51 61 67 60 6 9 10 10 13 17 20 20 18 16 15 13 12 11 12 13 14 14 14 21 34 50 59 58 57 59 9 10 10 10 13 18 22 20 17 15 13 11 10 10 11 13 15 17 22 34 50 60 58 49 50 65 10 10 10 10 14 19 21 20 17 15 12 10 10 11 13 15 18 22 27 36 43 47 44 38 40 53 7 9 10 10 14 18 20 20 18 14 12 11 11 12 15 17 21 25 27 28 27 27 27 27 29 39 4 10 10 10 13 16 19 20 17 13 12 12 13 15 16 18 21 24 25 23 22 26 34 34 41 76 6 12 12 11 13 15 18 17 14 12 12 13 15 18 19 18 18 21 22 22 33 58 75 75 91 136 7 15 15 12 13 14 15 14 12 11 11 12 17 22 22 17 15 17 19 30 63 94 104 104 121 168 12 17 18 15 13 12 12 12 10 10 10 12 18 26 25 16 12 14 18 39 75 95 96 108 147 196 14 18 20 18 14 11 10 9 9 8 9 12 20 29 27 16 11 11 15 35 61 73 79 120 180 216 13 17 22 21 16 12 10 9 8 8 8 10 17 29 39 37 27 17 14 23 43 64 89 141 191 222 13 16 19 20 18 16 13 10 9 9 9 9 12 30 61 75 57 30 17 15 34 65 95 144 189 217 12 14 16 17 19 19 15 11 10 11 10 10 12 24 52 70 58 35 22 18 30 52 82 138 184 211 12 13 15 18 21 21 17 12 11 11 10 11 12 14 22 33 36 32 27 22 25 44 100 161 191 213 13 14 15 17 20 20 17 14 12 10 9 10 12 14 16 21 27 34 38 30 24 39 89 141 189 217 9 12 13 15 17 18 18 16 13 10 9 9 11 13 17 20 24 38 57 53 35 29 37 67 168 192 6 14 13 11 12 16 16 17 17 15 14 17 24 28 32 39 48 56 44 29 45 55 64 78 95 94 27 37 36 36 41 47 49 47 44 39 34 31 32 39 50 61 70 74 73 75 79 76 75 83 101 124 41 47 50 50 54 58 61 58 52 45 39 37 39 51 66 75 80 81 82 87 83 72 73 85 106 120 42 49 53 53 55 57 58 56 50 42 38 40 49 64 75 78 77 78 81 82 79 73 80 95 110 108 31 47 54 53 53 55 58 59 52 42 39 44 56 72 83 87 88 89 89 83 76 72 82 99 105 94 29 46 52 50 51 56 61 59 51 43 42 51 66 81 90 94 96 96 92 81 70 67 77 92 101 97 27 43 50 48 51 56 59 57 51 45 47 57 73 86 92 93 94 93 87 75 65 66 78 101 124 131 25 41 48 48 51 54 56 57 53 47 48 58 72 82 85 86 87 84 76 68 63 68 88 126 152 157 26 41 48 48 50 54 57 57 53 48 49 58 71 78 80 82 82 78 70 62 62 75 104 141 157 155 13 37 47 48 51 55 59 60 57 52 52 59 68 72 75 77 76 69 59 52 63 92 121 140 147 148 18 38 47 47 51 57 64 65 61 54 54 58 61 64 70 75 71 60 50 51 75 111 134 140 144 150 21 40 48 47 50 58 67 68 63 57 53 51 50 55 65 73 68 58 56 74 103 126 134 135 138 149 28 43 48 45 50 61 71 69 62 55 50 45 44 53 65 70 67 63 74 101 124 129 125 123 124 142 38 47 49 46 52 62 70 68 61 53 46 42 45 57 66 68 68 73 87 106 115 111 106 104 103 123 37 49 51 47 52 59 66 67 62 52 45 43 49 60 66 66 69 77 87 94 94 88 86 86 82 98 37 51 51 46 50 57 64 65 60 52 47 47 53 61 63 62 66 74 80 81 80 80 88 90 88 111 32 54 53 48 52 58 62 61 55 50 48 48 55 62 62 58 61 69 72 72 83 103 123 134 139 167 24 56 56 50 52 53 56 54 49 47 45 46 54 64 65 57 58 65 64 72 103 132 153 169 181 206 29 58 61 53 50 47 46 45 42 40 39 41 52 71 73 59 59 63 59 78 113 137 156 177 199 219 42 60 66 57 48 39 36 35 33 33 33 37 58 87 90 69 61 60 56 73 102 124 148 185 213 225 52 61 67 62 52 41 36 36 35 34 35 42 67 103 124 114 90 75 63 63 80 114 158 195 215 224 50 59 65 64 60 52 48 46 44 42 47 57 74 117 157 160 132 99 72 59 72 107 148 181 205 222 45 55 61 64 66 61 55 49 47 46 53 63 75 108 146 155 137 110 82 62 73 98 120 158 200 225 34 49 57 63 66 62 55 49 47 45 50 60 70 82 99 111 115 114 95 70 82 110 140 182 214 229 29 44 53 58 60 58 54 50 48 45 49 58 63 67 71 81 101 120 111 79 81 114 145 177 208 228 26 43 50 54 56 55 53 52 49 45 47 51 53 55 60 70 91 120 130 102 69 82 107 124 173 192 53 74 72 77 86 91 90 87 85 83 81 83 88 94 107 121 133 141 135 123 122 120 130 144 156 143 85 91 91 97 107 113 112 108 104 99 95 93 98 109 124 137 146 150 148 143 139 136 139 147 158 171 95 99 102 109 119 123 122 117 110 105 100 100 108 124 140 147 150 150 148 144 138 133 138 147 158 164 95 100 106 112 120 125 124 118 110 103 101 106 119 134 143 145 146 147 144 139 134 133 141 151 157 155 85 98 108 114 120 125 129 124 114 104 102 111 127 140 144 145 147 149 145 138 132 133 147 160 161 152 82 96 106 114 121 128 131 124 113 104 105 118 134 143 146 145 147 147 143 136 133 142 161 174 175 170 79 92 104 114 124 129 130 123 112 104 106 122 138 146 146 144 144 142 138 133 138 156 176 190 195 195 76 92 106 116 124 127 125 118 109 101 107 125 140 146 145 141 139 137 133 134 146 165 184 200 205 205 75 94 113 120 123 123 118 109 101 99 109 128 143 150 152 147 142 138 134 138 153 171 189 201 203 204 68 95 115 120 119 114 108 103 98 100 112 130 144 154 158 155 148 142 137 141 157 175 187 193 195 201 75 97 115 117 114 108 104 101 98 100 112 127 141 152 159 159 152 143 139 145 160 175 182 186 193 202 79 100 114 112 106 102 102 102 100 103 111 121 135 149 159 159 151 143 142 151 163 170 175 182 189 197 89 106 115 110 105 103 107 108 107 107 110 117 131 148 157 154 146 141 145 156 165 167 170 178 180 190 104 114 116 110 108 109 114 116 114 111 109 115 131 147 153 148 141 140 146 156 161 162 166 170 169 182 109 118 119 110 109 111 116 119 118 113 110 114 129 144 147 142 139 140 144 149 153 157 162 163 161 175 109 116 115 109 109 112 117 118 115 109 106 110 124 137 140 138 137 138 140 143 146 152 159 165 168 183 104 113 111 107 110 112 115 112 106 99 98 105 120 133 137 135 135 136 136 137 143 152 167 183 193 205 92 109 108 104 106 107 107 101 93 89 89 100 118 133 138 136 136 135 131 134 146 161 182 202 213 221 89 106 105 99 98 97 95 88 82 79 81 96 123 143 148 143 139 135 128 132 147 167 191 211 223 228 96 107 106 97 90 84 81 76 73 71 77 103 140 163 168 157 145 136 130 129 139 164 194 216 227 229 105 109 107 99 90 82 79 79 77 75 89 126 161 181 187 177 160 150 143 137 139 166 200 219 225 228 107 113 112 105 100 94 90 89 87 97 128 158 175 191 200 192 174 159 149 147 153 170 193 207 217 226 103 113 119 118 116 107 98 92 90 109 143 165 175 187 195 188 172 159 146 146 161 171 178 190 211 226 81 100 115 120 119 110 99 92 96 112 137 158 170 177 177 169 162 161 151 146 164 178 183 199 219 229 63 85 103 110 110 103 96 95 106 121 138 154 165 169 166 158 157 163 154 141 158 180 188 200 217 227 54 85 101 107 107 101 97 105 119 128 134 139 147 155 159 154 152 158 155 137 138 163 176 182 194 190 49 64 64 70 79 82 81 78 76 75 73 73 75 80 90 102 111 116 114 110 106 104 106 111 114 95 66 67 68 75 84 87 85 82 80 78 76 76 80 88 99 108 114 116 114 107 103 102 104 108 110 113 67 69 72 80 89 92 90 85 82 80 79 80 87 98 108 112 113 113 109 102 97 98 101 104 105 105 65 68 74 82 91 95 94 88 83 81 80 84 93 103 108 109 110 109 104 97 95 96 101 104 104 103 63 67 75 84 91 97 99 93 85 81 81 88 99 105 105 104 106 105 101 96 94 98 109 116 114 109 61 66 75 87 95 99 100 93 85 81 82 90 101 106 103 100 100 99 97 94 98 112 131 141 137 131 59 65 75 88 98 101 100 93 84 79 81 92 103 106 103 98 96 95 94 94 107 130 149 157 156 156 59 66 79 91 99 100 96 86 78 74 80 95 106 109 105 99 95 94 94 100 118 141 156 162 163 165 58 70 87 95 97 95 87 75 70 71 82 99 110 116 115 109 103 100 100 109 127 145 155 157 159 163 60 74 91 96 93 85 75 67 65 70 84 101 113 122 126 122 114 111 111 118 131 142 145 146 150 156 63 76 90 92 87 75 66 62 61 69 84 99 113 125 130 127 120 116 117 123 129 131 131 136 144 149 67 78 88 86 77 68 63 62 63 71 83 96 112 125 131 127 120 117 118 120 120 119 123 132 139 144 75 82 89 85 77 68 67 68 72 77 84 94 111 125 129 123 115 113 113 113 113 116 123 131 133 140 84 89 89 84 79 75 75 79 81 83 85 94 110 122 124 117 110 107 106 107 111 118 126 130 130 138 89 92 91 84 80 79 81 84 86 86 86 91 105 116 117 112 108 105 104 105 111 120 127 129 129 139 88 88 86 83 82 81 83 84 83 80 80 84 97 108 111 110 108 105 102 104 110 118 127 133 137 147 86 84 81 80 81 81 81 79 74 69 69 78 93 104 109 109 108 104 102 103 109 118 130 142 151 159 80 79 76 76 77 77 75 69 63 59 61 74 92 105 110 111 109 104 101 104 111 122 137 152 163 169 77 75 70 69 69 70 67 60 55 53 56 74 100 115 118 117 110 103 100 103 111 124 142 159 170 175 76 74 69 65 62 61 59 55 52 51 57 85 117 131 133 128 116 106 103 100 104 121 144 163 174 177 76 76 71 64 60 58 57 56 54 53 68 106 136 144 142 133 122 116 114 111 108 123 148 164 171 175 80 81 76 68 65 63 61 59 58 71 105 134 148 151 147 134 122 116 117 122 126 132 146 154 163 172 79 84 86 83 79 72 65 60 60 83 119 140 147 148 143 129 114 108 108 121 134 138 139 145 159 171 63 73 85 88 85 76 66 61 67 87 113 133 143 146 138 122 110 106 105 117 133 137 137 148 164 173 50 60 74 80 79 72 65 65 79 98 115 129 140 145 139 124 109 104 101 108 125 136 137 146 162 171 39 60 73 78 77 71 67 76 94 106 111 115 125 134 136 125 109 99 95 95 111 130 134 136 146 133 0 0 0 0 0 0 0 0 0 0 0 0 0 0 0 0 0 0 0 0 0 0 0 0 0 0 0 0 0 0 0 0 0 0 0 0 0 0 0 0 0 0 0 0 0 0 0 0 0 0 0 0 0 0 0 0 0 0 0 0 0 0 0 0 0 0 0 0 0 0 0 0 0 0 0 0 0 0 0 0 0 0 0 0 0 0 0 0 0 0 0 0 0 0 0 0 0 0 0 0 0 0 0 0 0 0 0 0 0 0 0 0 0 0 0 0 0 0 0 0 0 0 0 0 0 0 0 0 0 0 0 0 0 0 0 0 0 0 0 0 0 0 0 0 0 0 0 0 0 0 0 0 0 0 0 0 0 0 0 0 0 0 0 0 0 0 0 0 0 0 0 0 0 0 0 0 0 0 0 0 0 0 0 0 0 0 0 0 0 0 0 0 0 0 0 0 0 0 0 0 0 0 0 0 0 0 0 0 0 0 0 0 0 0 0 0 0 0 0 0 0 0 0 0 0 0 0 0 0 0 0 0 0 0 0 0 0 0 0 0 0 0 0 0 0 0 0 0 0 0 0 0 0 0 0 0 0 0 0 0 0 0 0 0 0 0 0 0 0 0 0 0 0 0 0 0 0 0 0 0 0 0 0 0 0 0 0 0 0 0 0 0 0 0 0 0 0 0 0 0 0 0 0 0 0 0 0 0 0 0 0 0 0 0 0 0 0 0 0 0 0 0 0 0 0 0 0 0 0 0 0 0 0 0 0 0 0 0 0 0 0 0 0 0 0 0 0 0 0 0 0 0 0 0 0 0 0 0 0 0 0 0 0 0 0 0 0 0 0 0 0 0 0 0 0 0 0 0 0 0 0 0 0 0 0 0 0 0 0 0 0 0 0 0 0 0 0 0 0 0 0 0 0 0 0 0 0 0 0 0 0 0 0 0 0 0 0 0 0 0 0 0 0 0 0 0 0 0 0 0 0 0 0 0 0 0 0 0 0 0 0 0 0 0 0 0 0 0 0 0 0 0 0 0 0 0 0 0 0 0 0 0 0 0 0 0 0 0 0 0 0 0 0 0 0 0 0 0 0 0 0 0 0 0 0 0 0 0 0 0 0 0 0 0 0 0 0 0 0 0 0 0 0 0 0 0 0 0 0 0 0 0 0 0 0 0 0 0 0 0 0 0 0 0 0 0 0 0 0 0 0 0 0 0 0 0 0 0 0 0 0 0 0 0 0 0 0 0 0 0 0 0 0 0 0 0 0 0 0 0 0 0 0 0 0 0 0 0 0 0 0 0 0 0 0 0 0 0 0 0 0 0 0 0 0 0 0 0 0 0 0 0 0 0 0 0 0 0 0 0 0 0 0 0 0 0 0 0 0 0 0 0 0 0 0 0 0 0 0 0 0 0 0 0 0 0 0 0 0 0 0 0 0 0 0 0 0 0 0 0 0 0 0 0 0 0 0 0 0 0 0 0 0 0 0 0 0 0 0 0 0 0 0 0 0 0 0 0 0 0 0 0 0 0 0 0 
</DataArray>
<DataArray Name="HRRPUV" NumberOfComponents="1" type="UInt8" format="ascii">