<?xml version="1.0"?>
<VTKFile type="RectilinearGrid" version="1.0" byte_order="LittleEndian" header_type="UInt64">
<RectilinearGrid WholeExtent="0 25 0 25 0 15">
<Piece Extent="0 25 0 25 0 15">
<Coordinates>
<DataArray type="Float64" Name="Array X-Axis" format="ascii" RangeMin="0.0" RangeMax="15.0">
0.0 0.6 1.2 1.8 2.4 3.0 3.6 4.2 4.8 5.4 6.0 6.6 7.2 7.8 8.4 9.0 9.6 10.2 10.8 11.4 12.0 12.6 13.2 13.8 14.4 15.0 
</DataArray>
<DataArray type="Float64" Name="Array Y-Axis" format="ascii" RangeMin="0.0" RangeMax="15.0">
0.0 0.6 1.2 1.8 2.4 3.0 3.6 4.2 4.8 5.4 6.0 6.6 7.2 7.8 8.4 9.0 9.6 10.2 10.8 11.4 12.0 12.6 13.2 13.8 14.4 15.0 
</DataArray>
<DataArray type="Float64" Name="Array Z-Axis" format="ascii" RangeMin="0.0" RangeMax="9.0">
0.0 0.6 1.2 1.8 2.4 3.0 3.6 4.2 4.8 5.4 6.0 6.6 7.2 7.8 8.4 9.0 
</DataArray>
</Coordinates>
<PointData>
<DataArray Name="SOOT DENSITY" NumberOfComponents="1" type="UInt8" format="ascii">
0 0 0 0 0 0 0 0 0 0 0 0 0 0 0 0 0 0 0 0 0 0 0 0 0 0 0 0 0 0 0 0 0 0 0 0 0 0 0 0 0 0 0 0 0 0 0 0 0 0 0 0 0 0 0 0 0 0 0 0 0 0 0 0 0 0 0 0 0 0 0 0 0 0 0 0 0 0 0 0 0 0 0 0 0 0 0 0 0 0 0 0 0 0 0 0 0 0 0 0 0 0 0 0 0 0 0 0 0 0 0 0 0 0 0 0 0 0 0 0 0 0 0 0 0 0 0 0 0 0 0 0 0 0 0 0 0 0 0 0 0 0 0 0 0 0 0 0 0 0 0 0 0 0 0 0 0 0 0 0 0 0 0 0 0 0 0 0 0 0 0 0 0 0 0 0 0 0 0 0 0 0 0 0 0 0 0 0 0 0 0 0 0 0 0 0 0 0 0 0 0 0 0 0 0 0 0 0 0 0 0 0 0 0 0 0 0 0 0 0 0 0 0 0 0 0 0 0 0 0 0 0 0 0 0 0 0 0 0 0 0 0 0 0 0 0 0 0 0 0 0 0 0 0 0 0 0 0 0 0 0 0 0 0 0 0 0 0 0 0 0 0 0 0 0 0 0 0 0 0 0 0 0 0 0 0 0 0 0 0 0 0 0 0 0 0 0 0 0 0 0 0 0 0 0 0 0 0 0 0 0 0 0 0 0 0 0 0 0 0 0 0 0 0 0 0 0 0 0 0 0 0 0 0 0 0 0 0 0 0 0 0 0 0 0 0 0 0 0 0 0 0 0 0 0 0 0 0 0 0 0 0 0 0 0 0 0 0 0 0 0 0 0 0 0 0 0 0 0 0 0 0 0 0 0 0 0 0 0 0 0 0 0 0 0 0 0 0 0 0 0 0 0 0 0 0 0 0 0 0 0 0 0 0 0 0 0 0 0 0 0 0 0 0 0 0 0 0 0 0 0 0 0 0 0 0 0 0 0 0 0 0 0 0 0 0 0 0 0 0 0 0 0 0 0 0 0 0 0 0 0 0 0 0 0 0 0 0 0 0 0 0 0 0 0 0 0 0 0 0 0 0 0 0 0 0 0 0 0 0 0 0 0 0 0 0 0 0 0 0 0 0 0 0 0 0 0 0 0 0 0 0 0 0 0 0 0 0 0 0 0 0 0 0 0 0 0 0 0 0 0 0 0 0 0 0 0 0 0 0 0 0 0 0 0 0 0 0 0 0 0 0 0 0 0 0 0 0 0 0 0 0 0 0 0 0 0 0 0 0 0 0 0 0 0 0 0 0 0 0 0 0 0 0 0 0 0 0 0 0 0 0 0 0 0 0 0 0 0 0 0 0 0 0 0 0 0 0 0 0 0 0 0 0 0 0 0 0 0 0 0 0 0 0 0 0 0 0 0 0 0 0 0 0 0 0 0 0 0 0 0 0 0 0 0 0 0 0 0 0 0 0 0 0 0 0 0 0 0 0 0 0 0 0 0 0 0 0 0 0 0 0 0 0 0 0 0 0 0 0 0 0 0 0 0 0 0 0 0 0 0 0 0 0 0 0 0 0 0 0 0 0 0 0 0 0 0 0 0 0 0 0 0 0 0 0 0 0 0 0 0 0 0 0 0 0 0 0 0 0 0 0 0 0 0 0 0 0 0 0 0 0 0 0 0 0 0 0 0 0 0 0 0 0 0 0 0 0 0 0 0 0 0 0 0 0 0 0 0 0 0 0 0 0 0 0 0 0 0 0 0 0 0 0 0 0 0 0 0 0 0 0 0 0 0 0 0 0 0 0 0 0 0 0 0 0 0 0 0 0 0 0 0 0 0 0 0 0 0 0 0 0 0 0 0 0 0 0 0 0 0 0 0 0 0 0 0 0 0 0 0 0 0 0 0 0 0 0 0 0 0 0 0 0 0 0 0 0 0 0 0 0 0 0 0 0 0 0 0 0 0 0 0 0 0 0 0 0 0 0 0 0 0 0 0 0 0 0 0 0 0 0 0 0 0 0 0 0 0 0 0 0 0 0 0 0 0 0 0 0 0 0 0 0 0 0 0 0 0 0 0 0 0 0 0 0 0 0 0 0 0 0 0 0 0 0 0 0 0 0 0 0 0 0 0 0 0 0 0 0 0 0 0 0 0 0 0 0 0 0 0 0 0 0 0 0 0 0 0 0 0 0 0 0 0 0 0 0 0 0 0 0 0 0 0 0 0 0 0 0 0 0 0 0 0 0 0 0 0 0 0 0 0 0 0 0 0 0 0 0 0 0 0 0 0 0 0 0 0 0 0 0 0 0 0 0 0 0 0 0 0 0 0 0 0 0 0 0 0 0 0 0 0 0 0 0 0 0 0 0 0 0 0 0 0 0 0 0 0 0 0 0 0 0 0 0 0 0 0 0 0 0 0 0 0 0 0 0 0 0 0 0 0 0 0 0 0 0 0 0 0 0 0 0 0 0 0 0 0 0 0 0 0 0 0 0 0 0 0 0 0 0 0 0 0 0 0 0 0 0 0 0 0 0 0 0 0 0 0 0 0 0 0 0 0 0 0 0 0 0 0 0 0 0 0 0 0 0 0 0 0 0 0 0 0 0 0 0 0 0 0 0 0 0 0 0 0 0 0 0 0 0 0 0 0 0 0 0 0 0 0 0 0 0 0 0 0 0 0 0 0 0 0 0 0 0 0 0 0 0 0 0 0 0 0 0 0 0 0 0 0 0 0 0 0 0 0 0 0 0 0 0 0 0 0 0 0 0 0 0 0 0 0 0 0 0 0 0 0 0 0 0 0 0 0 0 0 0 0 0 0 0 0 0 0 0 0 0 0 0 0 0 0 0 0 0 0 0 0 0 0 0 0 0 0 0 0 0 0 0 0 0 0 0 0 0 0 0 0 0 0 0 0 0 0 0 0 0 0 0 0 0 0 0 0 0 0 0 0 0 0 0 0 0 0 0 0 0 0 0 0 0 0 0 0 0 0 0 0 0 0 0 0 0 0 0 0 0 0 0 0 0 0 0 0 0 0 0 0 0 0 0 0 0 0 0 0 0 0 0 0 0 0 0 0 0 0 0 0 0 0 0 0 0 0 0 0 0 0 0 0 0 0 0 0 0 0 0 0 0 0 0 0 0 0 0 0 0 0 0 0 0 0 0 0 0 0 0 0 0 0 0 0 0 0 0 0 0 0 0 0 0 0 0 0 0 0 0 0 0 0 0 0 0 0 0 0 0 0 0 0 0 0 0 0 0 0 0 0 0 0 0 0 0 0 0 0 0 0 0 0 0 0 0 0 0 0 0 0 0 0 0 0 0 0 0 0 0 0 0 0 0 0 0 0 0 0 0 0 0 0 0 0 0 0 0 0 0 0 0 0 0 0 0 0 0 0 0 0 0 0 0 0 0 0 0 0 0 0 0 0 0 0 0 0 0 0 0 0 0 0 0 0 0 0 0 0 0 0 0 0 0 0 0 0 0 0 0 0 0 0 0 0 0 0 0 0 0 0 0 0 0 0 0 0 0 0 0 0 0 0 0 0 0 0 0 0 0 0 0 0 0 0 0 0 0 0 0 0 0 0 0 0 0 0 0 0 0 0 0 0 0 0 0 0 0 0 0 0 0 0 0 0 0 0 0 0 0 0 0 0 0 0 0 0 0 0 0 0 0 0 0 0 0 0 0 0 0 0 0 0 0 0 0 0 0 0 0 0 0 0 0 0 0 0 0 0 0 0 0 0 0 0 0 0 0 0 0 0 0 0 0 0 0 0 0 0 0 0 0 0 0 0 0 0 0 0 0 0 0 0 0 0 0 0 0 0 0 0 0 0 0 0 0 0 0 0 0 0 0 0 0 0 0 0 0 0 0 0 0 0 0 0 0 0 0 0 0 0 0 0 0 0 0 0 0 0 0 0 0 0 0 0 0 0 0 0 0 0 0 0 0 0 0 0 0 0 0 0 0 0 0 0 0 0 0 0 0 0 0 0 0 0 0 0 0 0 0 0 0 0 0 0 0 0 0 0 0 0 0 0 0 0 0 0 0 0 0 0 0 0 0 0 0 0 0 0 0 0 0 0 0 0 0 0 0 0 0 0 0 0 0 0 0 0 0 0 0 0 0 0 0 0 0 0 0 0 0 0 0 0 0 0 0 0 0 0 0 0 0 0 0 0 0 0 0 0 0 0 0 0 0 0 0 0 0 0 0 0 0 0 1 0 0 0 0 0 0 0 0 0 0 0 0 0 0 0 0 0 0 0 0 0 0 0 0 0 1 0 0 0 0 0 0 0 0 0 0 0 0 0 0 0 0 0 0 0 0 0 0 0 0 0 1 0 0 0 0 0 0 0 0 0 0 0 0 0 0 0 0 0 0 0 0 0 0 0 0 0 1 0 0 0 0 0 0 0 0 0 0 0 0 0 0 0 0 0 0 0 0 0 0 0 0 0 0 0 0 0 0 0 0 0 0 0 0 0 0 0 0 0 0 0 0 0 0 0 0 0 0 0 0 0 0 0 0 0 0 0 0 0 0 0 0 0 0 0 0 0 0 0 0 0 0 0 0 0 0 0 0 0 0 0 0 0 0 0 0 0 0 0 0 0 0 0 0 0 0 0 0 0 0 0 0 0 0 0 0 0 0 0 0 0 0 0 0 0 0 0 0 0 0 0 0 0 0 0 0 0 0 0 0 0 0 0 0 0 0 0 0 0 0 0 0 0 0 0 0 0 0 0 0 0 0 0 0 0 0 0 0 0 0 0 0 0 0 0 0 0 0 0 0 0 0 0 0 0 0 0 0 0 0 0 0 0 0 0 0 0 0 0 0 0 0 0 0 0 0 0 0 0 0 0 0 0 0 0 0 0 0 0 0 0 0 0 0 0 0 0 0 0 0 0 0 0 0 0 0 0 0 0 0 0 0 0 0 0 0 0 0 0 0 0 0 0 0 0 0 0 0 0 0 0 0 0 0 0 0 0 0 0 0 0 0 0 0 0 0 0 0 0 0 0 0 0 0 0 0 0 0 0 0 0 0 0 0 0 0 0 0 0 0 0 0 0 0 0 0 0 0 0 0 0 0 0 0 0 0 0 0 0 0 0 0 0 0 0 0 0 0 0 0 0 0 0 0 0 0 0 0 0 0 0 0 0 0 0 0 0 0 0 0 0 0 0 0 0 0 0 0 0 0 0 0 0 0 0 0 0 0 0 0 0 0 0 0 0 0 0 0 0 0 0 0 0 0 0 0 0 0 0 0 0 0 0 0 0 0 0 0 0 0 0 0 0 0 0 0 0 0 0 0 0 0 0 0 0 0 0 0 0 0 0 0 0 0 0 0 0 0 0 0 0 0 0 0 0 0 0 0 0 0 0 0 0 0 0 0 0 0 0 0 0 0 0 0 0 0 0 0 0 0 0 0 0 0 0 0 0 0 0 0 0 0 0 0 0 0 0 0 0 0 0 0 0 0 0 0 0 0 0 0 0 0 0 0 0 0 0 0 0 0 0 0 0 0 0 0 0 0 0 0 0 0 0 0 0 0 0 0 0 0 0 0 0 0 0 0 0 0 0 0 0 0 0 0 0 0 0 0 0 0 0 0 0 0 0 0 0 0 0 0 0 0 0 0 0 0 0 0 0 0 0 0 0 0 0 0 0 0 0 0 0 0 0 0 0 0 0 0 0 2 0 0 0 0 0 0 0 0 0 0 0 0 0 0 0 0 0 0 0 0 0 0 0 0 1 7 0 0 0 0 0 0 0 0 0 0 0 0 0 0 0 0 0 0 0 0 0 0 0 0 2 12 0 0 0 0 0 0 0 0 0 0 0 0 0 0 0 0 0 0 0 0 0 0 0 0 2 10 0 0 0 0 0 0 0 0 0 0 0 0 0 0 0 0 0 0 0 0 0 0 0 0 2 7 0 0 0 0 0 0 0 0 0 0 0 0 0 0 0 0 0 0 0 0 0 0 0 0 1 4 0 0 0 0 0 0 0 0 0 0 0 0 0 0 0 0 0 0 0 0 0 0 0 0 0 1 0 0 0 0 0 0 0 0 0 0 0 0 0 0 0 0 0 0 0 0 0 0 0 0 0 0 0 0 0 0 0 0 0 0 0 0 0 0 0 0 0 0 0 0 0 0 0 0 0 0 0 0 0 0 0 0 0 0 0 0 0 0 0 0 0 0 0 0 0 0 0 0 0 0 0 0 0 0 0 0 0 0 0 0 0 0 0 0 0 0 0 0 0 0 0 0 0 0 0 0 0 0 0 0 0 0 0 0 0 0 0 0 0 0 0 0 0 0 0 0 0 0 0 0 0 0 0 0 0 0 0 0 0 0 0 0 0 0 0 0 0 0 0 0 0 0 0 0 0 0 0 0 0 0 0 0 0 0 0 0 0 0 0 0 0 0 0 0 0 0 0 0 0 0 0 0 0 0 0 0 0 0 0 0 0 0 0 0 0 0 0 0 0 0 0 0 0 0 0 0 0 0 0 0 0 0 0 0 0 0 0 0 0 0 0 0 0 0 0 0 0 0 0 0 0 0 0 0 0 0 0 0 0 0 0 0 0 0 0 0 0 0 0 0 0 0 0 0 0 0 0 0 0 0 0 0 0 0 0 0 0 0 0 0 0 0 0 0 0 0 0 0 0 0 0 0 0 0 0 0 0 0 0 0 0 0 0 0 0 0 0 0 0 0 0 0 0 0 0 0 0 0 0 0 0 0 0 0 0 0 0 0 0 0 0 0 0 0 0 0 0 0 0 0 0 0 0 0 0 0 0 0 0 0 0 0 0 0 0 0 0 0 0 0 0 0 0 0 0 0 0 0 0 0 0 0 0 0 0 0 0 0 0 0 0 0 0 0 0 0 0 0 0 0 0 0 0 0 0 0 0 0 0 0 0 0 0 0 0 0 0 0 0 0 0 0 0 0 0 0 0 0 0 0 0 0 0 0 0 0 0 0 0 0 0 0 0 0 0 0 0 0 0 0 0 0 0 0 0 0 0 0 0 0 0 0 0 0 0 0 0 0 0 0 0 0 0 0 0 0 0 0 0 0 0 0 0 0 0 0 0 0 0 0 0 0 0 1 0 0 0 0 0 0 0 0 0 0 0 0 0 0 0 0 0 0 0 0 0 0 0 0 1 7 0 0 0 0 0 0 0 0 0 0 0 0 0 0 0 0 0 0 0 0 0 0 0 0 6 27 0 0 0 0 0 0 0 0 0 0 0 0 0 0 0 0 0 0 0 0 0 0 0 0 10 69 0 0 0 0 0 0 0 0 0 0 0 0 0 0 0 0 0 0 0 0 0 0 0 1 12 77 0 0 0 0 0 0 0 0 0 0 0 0 0 0 0 0 0 0 0 0 0 0 0 1 13 44 0 0 0 0 0 0 0 0 0 0 0 0 0 0 0 0 0 0 0 0 0 0 0 1 7 24 0 0 0 0 0 0 0 0 0 0 0 0 0 0 0 0 0 0 0 0 0 0 0 0 3 21 0 0 0 0 0 0 0 0 0 0 0 0 0 0 0 0 0 0 0 0 0 0 0 0 1 12 0 0 0 0 0 0 0 0 0 0 0 0 0 0 0 0 0 0 0 0 0 0 0 0 0 2 0 0 0 0 0 0 0 0 0 0 0 0 0 0 0 0 0 0 0 0 0 0 0 0 0 0 0 0 0 0 0 0 0 0 0 0 0 0 0 0 0 0 0 0 0 0 0 0 0 0 0 0 0 0 0 0 0 0 0 0 0 0 0 0 0 0 0 0 0 0 0 0 0 0 0 0 0 0 0 0 0 0 0 0 0 0 0 0 0 0 0 0 0 0 0 0 0 0 0 0 0 0 0 0 0 0 0 0 0 0 0 0 0 0 0 0 0 0 0 0 0 0 0 0 0 0 0 0 0 0 0 0 0 0 0 0 0 0 0 0 0 0 0 0 0 0 0 0 0 0 0 0 0 0 0 0 0 0 0 0 0 0 0 0 0 0 0 0 0 0 0 0 0 0 0 0 0 0 0 0 0 0 0 0 0 0 0 0 0 0 0 0 0 0 0 0 0 0 0 0 0 0 0 0 0 0 0 0 0 0 0 0 0 0 0 0 0 0 0 0 0 0 0 0 0 0 0 0 0 0 0 0 0 0 0 0 0 0 0 0 0 0 0 0 0 0 0 0 0 0 0 0 0 0 0 0 0 0 0 0 0 0 0 0 0 0 0 0 0 0 0 0 0 0 0 0 0 0 0 0 0 0 0 0 0 0 0 0 0 0 0 0 0 0 0 0 0 0 0 0 0 0 0 0 0 0 0 0 0 0 0 0 0 0 0 0 0 0 0 0 0 0 0 0 0 0 0 0 0 0 0 0 0 0 0 0 0 0 0 0 0 0 0 0 0 0 0 0 0 0 0 0 0 0 0 0 0 0 0 0 0 0 0 0 0 0 0 0 0 0 0 0 0 0 0 0 0 0 0 0 0 0 0 0 0 0 0 0 0 0 0 0 0 0 0 0 0 0 0 0 0 0 0 0 0 0 0 0 0 0 0 0 0 0 0 0 0 0 0 0 0 0 0 0 0 0 0 0 0 0 0 0 0 0 0 0 0 0 0 0 1 17 0 0 0 0 0 0 0 0 0 0 0 0 0 0 0 0 0 0 0 0 0 0 0 1 16 57 0 0 0 0 0 0 0 0 0 0 0 0 0 0 0 0 0 0 0 0 0 0 1 2 29 92 0 0 0 0 0 0 0 0 0 0 0 0 0 0 0 0 0 0 0 0 0 0 1 3 42 154 0 0 0 0 0 0 0 0 0 0 0 0 0 0 0 0 0 0 0 0 0 0 0 5 61 181 0 0 0 0 0 0 0 0 0 0 0 0 0 0 0 0 0 0 0 0 0 0 0 5 47 138 0 0 0 0 0 0 0 0 0 0 0 0 0 0 0 0 0 0 0 0 0 0 0 2 17 92 0 0 0 0 0 0 0 0 0 0 0 0 0 0 0 0 0 0 0 0 0 0 0 1 19 105 0 0 0 0 0 0 0 0 0 0 0 0 0 0 0 0 0 0 0 0 0 0 0 0 13 72 0 0 0 0 0 0 0 0 0 0 0 0 0 0 0 0 0 0 0 0 0 0 0 0 1 12 0 0 0 0 0 0 0 0 0 0 0 0 0 0 0 0 0 0 0 0 0 0 0 0 0 0 0 0 0 0 0 0 0 0 0 0 0 0 0 0 0 0 0 0 0 0 0 0 0 0 0 0 0 0 0 0 0 0 0 0 0 0 0 0 0 0 0 0 0 0 0 0 0 0 0 0 0 0 0 0 0 0 0 0 0 0 0 0 0 0 0 0 0 0 0 0 0 0 0 0 0 0 0 0 0 0 0 0 0 0 0 0 0 0 0 0 0 0 0 0 0 0 0 0 0 0 0 0 0 0 0 0 0 0 0 0 0 0 0 0 0 0 0 0 0 0 0 0 0 0 0 0 0 0 0 0 0 0 0 0 0 0 0 0 0 0 0 0 0 0 0 0 0 0 0 0 0 0 0 0 0 0 0 0 0 0 0 0 0 0 0 0 0 0 0 0 0 0 0 0 0 0 0 0 0 0 0 0 0 0 0 0 0 0 0 0 0 0 0 0 0 0 0 0 0 0 0 0 0 0 0 0 0 0 0 0 0 0 0 0 0 0 0 0 0 0 0 0 0 0 0 0 0 0 0 0 0 0 0 0 0 0 0 0 0 0 0 0 0 0 0 0 0 0 0 0 0 0 0 0 0 0 0 0 0 0 0 0 0 0 0 0 0 0 0 0 0 0 0 0 0 0 0 0 0 0 0 0 0 0 0 0 0 0 0 0 0 0 0 0 0 0 0 0 0 0 0 0 0 0 0 0 0 0 0 0 0 0 0 0 0 0 0 0 0 0 0 0 0 0 0 0 0 0 0 0 0 0 0 0 0 0 0 0 0 0 0 0 0 0 0 0 0 0 0 0 0 0 0 0 0 0 0 0 0 0 0 0 0 0 0 0 0 0 0 0 0 0 0 0 0 0 0 0 0 0 0 0 0 0 0 0 0 0 0 1 0 0 0 0 0 0 0 0 0 0 0 0 0 0 0 0 0 0 0 0 0 0 0 0 3 24 0 0 0 0 0 0 0 0 0 0 0 0 0 0 0 0 0 0 0 0 0 0 1 3 30 90 0 0 0 0 0 0 0 0 0 0 0 0 0 0 0 0 0 0 0 0 0 5 11 13 56 137 0 0 0 0 0 0 0 0 0 0 0 0 0 0 0 0 0 0 0 0 0 6 16 20 88 199 0 0 0 0 0 0 0 0 0 0 0 0 0 0 0 0 0 0 0 0 0 1 7 22 126 226 0 0 0 0 0 0 0 0 0 0 0 0 0 0 0 0 0 0 0 0 0 0 1 16 99 200 0 0 0 0 0 0 0 0 0 0 0 0 0 0 0 0 0 0 0 0 0 0 1 13 53 167 0 0 0 0 0 0 0 0 0 0 0 0 0 0 0 0 0 0 0 0 0 0 1 13 76 191 0 0 0 0 0 0 0 0 0 0 0 0 0 0 0 0 0 0 0 0 0 0 0 4 55 167 0 0 0 0 0 0 0 0 0 0 0 0 0 0 0 0 0 0 0 0 0 0 0 0 7 68 0 0 0 0 0 0 0 0 0 0 0 0 0 0 0 0 0 0 0 0 0 0 0 0 0 0 0 0 0 0 0 0 0 0 0 0 0 0 0 0 0 0 0 0 0 0 0 0 0 0 0 0 0 0 0 0 0 0 0 0 0 0 0 0 0 0 0 0 0 0 0 0 0 0 0 0 0 0 0 0 0 0 0 0 0 0 0 0 0 0 0 0 0 0 0 0 0 0 0 0 0 0 0 0 0 0 0 0 0 0 0 0 0 0 0 0 0 0 0 0 0 0 0 0 0 0 0 0 0 0 0 0 0 0 0 0 0 0 0 0 0 0 0 0 0 0 0 0 0 0 0 0 0 0 0 0 0 0 0 0 0 0 0 0 0 0 0 0 0 0 0 0 0 0 0 0 0 0 0 0 0 0 0 0 0 0 0 0 0 0 0 0 0 0 0 0 0 0 0 0 0 0 0 0 0 0 0 0 0 0 0 0 0 0 0 0 0 0 0 0 0 0 0 0 0 0 0 0 0 0 0 0 0 0 0 0 0 0 0 0 0 0 0 0 0 0 0 0 0 0 0 0 0 0 0 0 0 0 0 0 0 0 0 0 0 0 0 0 0 0 0 0 0 0 0 0 0 0 0 0 0 0 0 0 0 0 0 0 0 0 0 0 0 0 0 0 0 0 0 0 0 0 0 0 0 0 0 0 0 0 0 0 0 0 0 0 0 0 0 0 0 0 0 0 0 0 0 0 0 0 0 0 0 0 0 0 0 0 0 0 0 0 0 0 0 0 0 0 0 0 0 0 0 0 0 0 0 0 0 0 0 0 0 0 0 0 0 0 0 0 0 0 0 0 0 0 0 0 0 0 0 0 0 0 0 0 0 0 0 0 0 0 0 0 0 0 0 0 0 0 0 0 0 0 0 0 0 0 0 0 0 0 0 0 0 1 0 0 0 0 0 0 0 0 0 0 0 0 0 0 0 0 0 0 0 0 0 0 0 1 10 36 0 0 0 0 0 0 0 0 0 0 0 0 0 0 0 0 0 0 0 0 0 0 2 7 50 116 0 0 0 0 0 0 0 0 0 0 0 0 0 0 0 0 0 0 0 0 0 12 35 49 101 165 0 0 0 0 0 0 0 0 0 0 0 0 0 0 0 0 0 0 0 0 1 16 49 70 140 215 0 0 0 0 0 0 0 0 0 0 0 0 0 0 0 0 0 0 0 0 0 6 23 48 158 233 0 0 0 0 0 0 0 0 0 0 0 0 0 0 0 0 0 0 0 0 0 3 8 32 127 215 0 0 0 0 0 0 0 0 0 0 0 0 0 0 0 0 0 0 0 0 0 1 5 43 115 203 0 0 0 0 0 0 0 0 0 0 0 0 0 0 0 0 0 0 0 0 0 0 3 37 120 214 0 0 0 0 0 0 0 0 0 0 0 0 0 0 0 0 0 0 0 0 0 0 1 6 63 191 0 0 0 0 0 0 0 0 0 0 0 0 0 0 0 0 0 0 0 0 0 0 0 1 12 102 0 0 0 0 0 0 0 0 0 0 0 0 0 0 0 0 0 0 0 0 0 0 0 0 0 0 0 0 0 0 0 0 0 0 0 0 0 0 0 0 0 0 0 0 0 0 0 0 0 0 0 0 0 0 0 0 0 0 0 0 0 0 0 0 0 0 0 0 0 0 0 0 0 0 0 0 0 0 0 0 0 0 0 0 0 0 0 0 0 0 0 0 0 0 0 0 0 0 0 0 0 0 0 0 0 0 0 0 0 0 0 0 0 0 0 0 0 0 0 0 0 0 0 0 0 0 0 0 0 0 0 0 0 0 0 0 0 0 0 0 0 0 0 0 0 0 0 0 0 0 0 0 0 0 0 0 0 0 0 0 0 0 0 0 0 0 0 0 0 0 0 0 0 0 0 0 0 0 0 0 0 0 0 0 0 0 0 0 0 0 0 0 0 0 0 0 0 0 0 0 0 0 0 0 0 0 0 0 0 0 0 0 0 0 0 0 0 0 0 0 0 0 0 0 0 0 0 0 0 0 0 0 0 0 0 0 0 0 0 0 0 0 0 0 0 0 0 0 0 0 0 0 0 0 0 0 0 0 0 0 0 0 0 0 0 0 0 0 0 0 0 0 0 0 0 0 0 0 0 0 0 0 0 0 0 0 0 0 0 0 0 0 0 0 0 0 0 0 0 0 0 0 0 0 0 0 0 0 0 0 0 0 0 0 0 0 0 0 0 0 0 0 0 0 0 0 0 0 0 0 0 0 0 0 0 0 0 0 0 0 0 0 0 0 0 0 0 0 0 0 0 0 0 0 0 0 0 0 0 0 0 0 0 0 0 0 0 0 0 0 0 0 0 0 0 0 0 0 0 0 0 0 0 0 0 0 0 0 0 0 0 0 0 0 0 0 0 0 0 0 0 0 0 0 0 0 0 0 0 0 0 0 0 0 0 1 0 0 0 0 0 0 0 0 0 0 0 0 0 0 0 0 0 0 0 0 0 0 0 1 12 40 0 0 0 0 0 0 0 0 0 0 0 0 0 0 0 0 0 0 0 0 0 1 4 10 55 125 0 0 0 0 0 0 0 0 0 0 0 0 0 0 0 0 0 0 0 0 1 13 48 83 130 174 0 0 0 0 0 0 0 0 0 0 0 0 0 0 0 0 0 0 0 0 3 21 73 118 171 212 0 0 0 0 0 0 0 0 0 0 0 0 0 0 0 0 0 0 0 0 4 22 58 87 160 223 0 0 0 0 0 0 0 0 0 0 0 0 0 0 0 0 0 0 0 0 2 18 42 65 133 210 0 0 0 0 0 0 0 0 0 0 0 0 0 0 0 0 0 0 0 0 0 9 29 81 152 209 0 0 0 0 0 0 0 0 0 0 0 0 0 0 0 0 0 0 0 0 0 4 17 59 123 196 0 0 0 0 0 0 0 0 0 0 0 0 0 0 0 0 0 0 0 0 0 1 4 10 32 143 0 0 0 0 0 0 0 0 0 0 0 0 0 0 0 0 0 0 0 0 0 0 1 5 14 69 0 0 0 0 0 0 0 0 0 0 0 0 0 0 0 0 0 0 0 0 0 0 0 0 0 0 0 0 0 0 0 0 0 0 0 0 0 0 0 0 0 0 0 0 0 0 0 0 0 0 0 0 0 0 0 0 0 0 0 0 0 0 0 0 0 0 0 0 0 0 0 0 0 0 0 0 0 0 0 0 0 0 0 0 0 0 0 0 0 0 0 0 0 0 0 0 0 0 0 0 0 0 0 0 0 0 0 0 0 0 0 0 0 0 0 0 0 0 0 0 0 0 0 0 0 0 0 0 0 0 0 0 0 0 0 0 0 0 0 0 0 0 0 0 0 0 0 0 0 0 0 0 0 0 1 1 0 0 0 0 0 0 0 0 0 0 0 0 0 0 0 0 0 0 0 0 0 0 0 1 1 1 0 0 0 0 0 0 0 0 0 0 0 0 0 0 0 0 0 0 0 0 0 0 0 1 1 1 0 0 0 0 0 0 0 0 0 0 0 0 0 0 0 0 0 0 0 0 0 0 0 1 1 1 0 0 0 0 0 0 0 0 0 0 0 0 0 0 0 0 0 0 0 0 0 0 0 0 0 1 0 0 0 0 0 0 0 0 0 0 0 0 0 0 0 0 0 0 0 0 0 0 0 0 0 0 0 0 0 0 0 0 0 0 0 0 0 0 0 0 0 0 0 0 0 0 0 0 0 0 0 0 0 0 0 0 0 0 0 0 0 0 0 0 0 0 1 1 0 0 0 0 0 0 0 0 1 1 0 0 0 0 0 0 0 0 0 0 0 0 0 0 1 1 0 0 0 0 0 0 0 0 1 1 0 0 0 0 0 0 0 0 0 0 0 0 0 0 0 1 0 0 0 0 0 0 0 0 1 1 0 0 0 0 0 0 0 0 0 0 0 0 0 0 0 0 0 0 0 0 0 0 0 1 1 1 0 0 0 0 0 0 0 0 0 0 0 0 0 0 0 0 0 0 0 0 0 1 1 2 5 16 0 0 0 0 0 0 0 0 0 0 0 0 0 0 0 0 0 1 1 1 1 5 12 19 35 80 0 0 0 0 0 0 0 0 0 0 0 0 0 0 0 0 0 0 1 1 5 27 58 90 119 151 0 0 0 0 0 0 0 0 0 0 0 0 0 0 0 0 0 0 0 2 20 53 96 139 174 199 0 0 0 0 0 0 0 0 0 0 0 0 0 0 0 0 0 0 0 2 23 61 106 135 165 208 0 0 0 0 0 0 0 0 0 0 0 0 0 0 0 0 0 0 0 1 11 44 90 114 146 201 0 0 0 0 0 0 0 0 0 0 0 0 0 0 0 0 0 0 0 0 4 21 59 107 156 194 0 0 0 0 0 0 0 0 0 0 0 0 0 0 0 0 0 0 0 0 1 9 33 70 111 149 0 0 0 0 0 0 0 0 0 0 0 0 0 0 0 0 0 0 1 1 1 2 7 17 34 75 0 0 0 0 0 0 0 0 0 0 0 0 0 0 0 0 0 1 1 1 1 1 2 10 22 33 0 0 0 0 0 0 0 0 0 0 0 0 0 0 0 1 1 1 0 0 1 1 0 0 0 0 0 0 0 0 0 0 1 1 1 1 1 1 0 0 1 1 1 1 1 1 2 2 1 1 1 1 0 0 0 0 1 1 1 1 1 1 1 1 1 1 1 1 1 1 1 1 2 2 2 2 2 2 0 0 1 1 1 1 1 1 1 1 1 1 1 1 1 1 1 1 1 2 2 2 2 3 3 4 0 0 1 1 1 1 1 1 1 1 1 1 1 1 1 1 1 2 2 2 2 3 3 4 4 6 0 0 0 1 1 1 1 1 1 1 1 1 2 2 2 2 2 2 2 3 3 3 4 5 8 8 0 0 1 1 1 1 1 1 1 1 1 1 1 2 2 2 2 2 3 4 4 5 7 10 11 9 0 0 1 1 1 1 1 1 1 1 1 1 1 2 2 2 2 3 5 6 8 9 10 11 11 8 0 0 1 1 1 1 1 1 1 1 1 1 1 1 2 2 2 3 6 8 10 11 10 8 6 5 0 0 1 1 1 1 1 1 1 1 1 1 1 2 2 2 2 3 5 6 7 7 6 4 3 3 0 0 0 1 1 1 1 1 1 1 1 1 2 3 4 3 2 2 4 4 4 4 3 4 4 3 0 0 0 1 1 1 1 1 1 1 1 2 4 8 8 6 4 2 3 3 3 2 4 5 5 4 0 0 0 0 1 1 1 1 1 1 2 4 7 10 10 8 5 3 3 3 2 2 4 7 8 6 0 0 0 0 1 1 1 1 1 1 2 5 8 9 9 8 6 4 4 3 2 2 4 8 11 10 0 0 0 0 1 1 1 1 1 2 2 4 7 9 9 8 7 5 4 3 3 3 4 9 15 14 0 0 0 0 0 1 1 1 2 2 3 5 8 9 8 7 6 5 4 4 4 4 5 9 15 16 0 0 0 0 1 1 1 1 2 2 3 5 7 8 7 6 5 5 4 4 4 5 9 13 21 36 0 0 0 1 1 1 1 1 1 2 2 3 5 6 6 5 5 5 5 6 7 15 34 46 70 102 0 0 0 0 1 1 1 1 1 1 2 2 3 4 5 4 4 5 6 9 29 68 92 104 132 163 0 0 0 0 1 1 1 2 2 2 2 2 2 3 3 3 3 5 7 26 75 114 134 157 178 198 0 0 0 0 1 1 1 2 3 3 2 3 3 3 4 3 3 4 5 34 93 126 151 173 183 207 0 0 1 1 1 1 1 2 2 3 3 3 4 4 4 4 4 3 2 16 68 117 145 159 171 200 0 1 1 1 1 1 2 2 2 3 3 3 3 4 4 7 7 4 3 4 28 78 113 136 160 179 1 2 1 1 1 3 3 3 3 3 4 4 4 3 3 6 8 7 8 7 6 30 61 87 118 128 1 2 1 1 1 3 4 3 3 3 5 6 5 3 2 3 6 10 14 13 9 10 17 35 70 91 0 1 1 1 1 2 2 2 2 4 8 9 7 3 2 2 5 9 13 14 10 10 13 21 45 56 1 2 3 3 4 5 5 5 6 5 3 3 2 2 5 7 6 7 10 14 19 21 18 18 20 13 2 3 4 4 6 9 11 13 14 12 9 8 6 6 7 8 8 10 14 19 24 27 24 24 24 18 2 4 5 6 8 12 14 15 14 12 12 11 10 9 9 9 10 14 18 23 28 33 33 35 37 30 1 4 6 7 8 11 13 13 12 11 12 12 11 11 11 12 17 20 24 28 32 36 37 43 46 46 3 5 7 7 9 10 13 13 12 11 11 13 14 15 16 18 23 27 31 35 39 41 41 44 47 50 4 7 9 8 9 10 12 12 11 10 11 14 17 19 20 22 27 33 38 42 44 43 41 47 54 52 6 9 11 10 10 10 11 11 11 11 12 15 19 21 22 25 30 39 45 50 51 47 48 53 51 43 5 10 12 11 10 10 10 10 11 11 13 16 18 20 22 25 30 42 53 57 59 59 57 46 31 25 3 9 12 11 11 11 11 11 11 12 14 17 18 18 20 22 28 42 55 58 59 60 48 28 17 15 4 11 12 11 10 10 11 11 11 12 14 18 20 20 20 20 24 35 45 45 44 42 31 19 13 11 5 11 11 10 10 10 11 11 11 12 13 17 21 25 26 24 24 31 38 35 28 24 21 21 18 14 4 9 10 10 10 10 11 11 12 12 14 19 27 35 36 31 28 32 37 31 20 16 24 32 30 25 3 7 10 10 10 10 10 11 12 13 17 26 35 40 39 35 32 34 36 27 17 17 33 46 45 45 2 7 10 10 10 10 11 12 13 14 18 27 37 41 40 38 37 36 30 22 19 23 37 52 63 74 2 8 10 11 11 12 13 15 17 17 19 26 36 42 42 40 37 32 25 22 26 31 37 56 80 94 3 9 10 10 11 13 16 19 21 21 23 29 37 41 40 36 32 28 25 26 28 32 42 59 79 96 3 8 9 9 11 14 16 19 20 22 25 30 35 36 35 31 28 29 32 31 28 33 48 61 85 125 2 7 10 11 13 14 14 15 16 18 21 27 31 32 31 28 29 37 45 43 38 47 74 94 134 177 2 6 9 11 14 16 16 17 17 17 18 23 28 28 27 27 34 49 57 55 69 108 137 152 177 201 2 5 8 10 13 17 20 25 27 23 19 22 25 25 23 26 42 58 61 72 120 159 179 196 205 214 2 6 8 9 11 15 20 28 34 31 26 26 27 24 24 30 47 57 50 72 143 179 191 205 208 217 4 8 9 8 9 14 23 29 30 28 25 26 26 25 34 44 45 40 28 36 107 172 191 195 195 210 9 10 9 8 14 25 33 32 24 20 21 25 25 25 43 61 57 40 24 14 40 122 171 178 179 193 13 13 11 13 28 44 45 36 26 26 33 39 35 28 35 54 65 62 53 33 18 53 111 139 153 174 12 13 12 16 34 50 49 39 30 33 46 51 41 26 21 31 53 69 74 56 30 29 57 87 124 168 6 9 11 14 24 36 40 36 31 40 57 59 41 20 13 17 36 57 69 60 40 39 54 60 92 123 2 12 22 29 27 21 21 22 45 61 41 18 11 8 15 23 29 39 48 57 68 82 84 87 93 65 11 21 31 42 52 59 61 60 66 68 59 44 33 30 31 35 49 65 76 82 91 100 101 106 114 106 16 29 37 46 59 69 72 69 66 66 64 54 45 44 44 51 71 91 100 103 109 116 119 130 141 139 19 33 36 42 55 65 68 65 59 57 57 55 52 53 59 74 96 109 113 116 118 122 126 138 147 148 20 39 44 44 54 62 67 66 60 54 53 61 68 72 78 93 110 118 123 125 125 127 130 137 142 141 28 50 55 49 51 54 61 62 58 54 58 71 82 85 89 98 110 119 125 128 128 127 128 133 133 124 48 61 63 57 55 52 55 54 54 56 64 77 87 90 94 103 112 123 134 140 139 132 130 124 106 91 53 62 63 57 53 49 47 47 50 55 64 75 81 84 92 102 113 130 144 148 145 140 129 100 64 53 50 59 60 57 56 51 47 46 49 53 62 70 72 73 79 89 106 130 145 142 136 132 111 72 44 36 38 57 59 57 58 54 50 47 48 51 58 65 68 69 74 81 97 119 130 120 108 104 88 66 48 37 35 55 57 55 55 53 51 48 47 48 53 59 66 73 81 87 96 112 120 105 83 76 76 75 65 51 41 50 53 52 52 50 49 48 47 47 51 59 71 84 93 97 102 114 118 94 65 63 85 98 87 81 28 44 51 51 50 48 49 49 49 48 52 65 82 94 98 100 109 120 113 81 56 69 107 121 110 121 15 41 49 49 48 49 50 52 52 50 54 70 90 98 96 101 113 117 100 71 65 90 120 130 138 165 14 41 49 47 47 49 53 58 60 57 59 74 94 102 99 102 111 108 88 74 84 107 122 135 162 190 15 40 46 44 47 54 61 66 68 66 68 79 94 100 98 98 102 100 91 88 96 105 116 137 164 194 14 37 45 49 58 65 69 70 70 72 76 83 91 94 93 91 93 97 100 103 102 100 110 129 155 200 17 35 50 60 70 72 71 68 66 70 78 86 91 93 92 92 93 103 116 121 114 111 120 136 172 215 15 31 47 58 67 70 72 71 67 67 76 86 90 92 96 99 108 122 134 131 126 144 168 186 209 226 10 28 40 47 55 62 70 79 79 70 70 82 87 86 90 101 121 133 132 123 144 182 207 223 231 233 8 29 39 38 43 51 64 80 87 78 73 87 93 82 87 108 129 134 112 93 148 198 216 228 231 233 10 31 37 33 39 56 74 83 81 73 74 87 88 85 112 132 131 125 92 56 102 182 213 220 222 230 16 32 35 38 58 81 93 87 72 67 76 84 79 87 126 148 142 122 82 42 48 132 196 209 208 223 25 35 40 58 90 108 105 90 77 80 91 95 90 90 111 132 139 131 106 68 54 91 153 184 196 219 31 38 47 70 101 115 110 96 85 87 100 105 97 89 92 99 112 124 127 103 76 89 125 152 188 221 20 35 46 62 86 100 101 93 84 88 104 109 91 69 65 74 90 106 120 116 94 98 126 140 176 190 31 61 87 102 105 105 107 108 121 127 106 81 70 66 70 82 103 124 135 140 146 155 160 163 166 136 64 81 101 116 126 131 131 130 132 130 118 102 92 90 92 107 134 154 161 161 164 167 168 172 177 175 81 97 109 120 133 138 137 133 131 129 125 115 107 109 118 141 168 181 181 179 177 175 174 178 185 187 88 100 107 117 129 134 133 128 124 124 123 120 118 122 140 166 184 188 186 182 178 174 172 176 181 183 93 109 116 118 127 130 131 127 124 121 122 127 132 137 157 179 189 188 185 182 177 174 172 174 175 172 106 122 126 122 122 123 125 124 123 123 125 132 139 148 167 183 187 184 181 179 176 173 170 168 162 153 126 133 132 125 122 118 118 118 121 123 128 134 140 155 175 186 186 183 183 183 180 174 169 158 141 127 130 133 129 122 118 113 112 114 118 121 125 131 137 154 176 186 186 185 186 186 182 177 168 147 121 108 129 131 127 122 120 115 113 113 117 120 123 126 130 148 170 181 184 184 184 180 176 173 163 143 118 102 118 127 125 121 120 117 114 113 114 116 119 122 127 147 169 178 180 179 177 169 162 161 157 145 128 114 112 122 121 116 115 113 112 110 109 109 113 117 128 152 173 180 178 175 172 161 150 150 152 150 143 138 114 117 115 110 108 106 106 104 103 103 108 117 138 165 181 183 179 175 169 153 139 143 156 162 160 164 103 112 112 107 104 102 102 102 101 101 107 125 156 178 185 183 179 176 165 144 133 144 165 173 172 186 91 107 109 103 101 101 102 103 102 102 111 140 170 183 183 180 177 171 157 138 136 153 170 177 186 209 88 103 105 100 99 100 103 106 107 106 118 150 176 184 182 177 173 165 152 141 146 160 171 181 203 225 86 101 103 99 100 103 108 112 113 113 125 152 173 179 177 172 168 163 155 152 155 158 166 184 211 231 82 98 104 104 108 112 115 117 119 124 137 156 169 173 170 165 163 163 164 166 167 164 168 187 212 233 81 95 105 110 115 117 118 119 124 137 153 164 169 170 168 166 166 169 176 182 183 183 186 199 218 235 75 87 98 105 110 114 118 121 127 143 161 169 169 168 169 171 174 180 185 188 190 200 211 221 232 238 65 82 92 95 101 106 113 120 126 139 157 168 167 164 166 171 175 177 173 171 187 212 228 236 240 240 62 80 89 89 95 100 109 118 123 133 153 169 170 162 164 171 172 166 148 137 175 216 232 239 241 241 61 78 85 87 97 107 116 120 121 134 157 170 168 165 174 178 171 164 148 136 168 212 230 235 238 240 60 76 82 92 111 122 126 126 137 156 170 172 165 166 177 179 173 163 151 154 173 199 221 229 232 238 65 79 93 111 131 135 130 131 149 168 175 176 174 173 173 171 166 159 153 160 177 190 205 218 227 237 76 87 105 125 139 139 134 130 139 155 166 174 178 179 173 160 151 151 156 165 178 191 199 208 224 237 63 92 107 119 131 134 132 128 127 137 152 163 166 165 163 153 145 143 153 167 179 191 201 207 222 216 30 53 73 85 90 94 96 97 97 90 79 70 63 61 62 69 87 104 113 115 117 120 123 125 127 103 56 67 83 91 96 98 99 99 98 92 83 76 71 72 75 88 110 125 128 127 126 125 125 125 126 127 71 78 87 94 100 101 99 97 96 93 89 84 82 85 95 117 138 145 142 138 133 126 121 120 120 122 75 80 86 93 100 100 96 93 92 93 92 91 89 94 112 135 148 147 141 136 129 121 114 111 111 113 80 86 92 94 97 97 94 92 91 92 94 95 95 100 121 143 149 143 136 131 125 118 112 108 105 103 90 94 96 95 94 93 91 90 92 93 94 94 94 105 130 147 147 138 131 127 123 117 111 105 98 93 100 100 98 94 91 89 88 89 92 93 93 91 93 113 139 150 146 136 128 125 122 117 110 101 92 85 101 100 95 90 88 87 87 89 91 92 91 89 94 116 141 150 146 134 127 124 121 118 113 104 92 82 100 99 95 90 88 87 87 89 91 91 90 89 93 115 141 151 145 132 124 121 120 119 118 111 98 84 97 97 94 89 87 86 87 88 89 88 88 88 94 118 143 151 145 131 122 118 118 119 121 116 105 96 93 93 89 85 83 83 83 84 83 83 84 87 97 124 146 152 143 129 120 116 115 117 120 117 114 116 90 89 85 80 78 77 77 77 77 77 80 87 108 136 151 151 140 128 118 111 110 115 119 121 125 134 87 87 83 77 74 73 73 73 73 74 80 96 126 148 155 150 137 124 114 107 107 112 118 124 131 145 83 83 81 75 72 72 72 72 72 74 84 111 140 153 155 147 133 120 111 106 107 110 116 125 138 159 80 80 77 73 72 72 72 73 74 76 88 120 145 153 152 142 128 117 110 107 108 110 115 128 151 178 78 79 77 74 73 72 74 75 77 78 92 121 141 147 144 136 125 118 114 112 111 110 116 133 165 191 74 77 78 75 73 73 75 78 81 87 102 123 137 141 137 129 124 122 122 123 123 123 127 146 176 196 71 74 75 73 72 72 75 79 88 103 119 131 136 136 132 129 128 130 133 138 142 146 153 167 186 197 65 68 70 69 69 71 75 80 92 112 130 137 135 132 130 131 133 137 139 143 152 164 176 187 194 197 59 64 68 67 68 70 74 78 87 108 130 137 134 129 128 128 127 126 123 126 146 172 188 196 199 197 57 62 66 67 70 72 74 76 80 99 125 137 135 129 129 125 116 107 99 102 134 172 191 198 199 197 56 59 63 68 75 76 75 75 80 103 129 138 135 131 128 121 110 104 105 116 145 175 189 195 197 198 54 57 61 69 78 78 76 83 105 130 143 142 136 132 125 114 107 105 115 139 161 173 182 188 193 198 54 60 70 79 83 81 79 88 118 140 146 147 145 140 129 115 106 102 112 140 161 166 170 177 187 196 60 67 79 87 88 84 80 83 100 121 134 143 149 149 137 118 105 101 108 131 155 165 166 170 181 192 51 73 81 84 85 84 82 82 85 100 116 128 135 141 137 121 106 102 107 125 149 164 167 168 176 160 0 0 0 0 0 0 0 0 0 0 0 0 0 0 0 0 0 0 0 0 0 0 0 0 0 0 0 0 0 0 0 0 0 0 0 0 0 0 0 0 0 0 0 0 0 0 0 0 0 0 0 0 0 0 0 0 0 0 0 0 0 0 0 0 0 0 0 0 0 0 0 0 0 0 0 0 0 0 0 0 0 0 0 0 0 0 0 0 0 0 0 0 0 0 0 0 0 0 0 0 0 0 0 0 0 0 0 0 0 0 0 0 0 0 0 0 0 0 0 0 0 0 0 0 0 0 0 0 0 0 0 0 0 0 0 0 0 0 0 0 0 0 0 0 0 0 0 0 0 0 0 0 0 0 0 0 0 0 0 0 0 0 0 0 0 0 0 0 0 0 0 0 0 0 0 0 0 0 0 0 0 0 0 0 0 0 0 0 0 0 0 0 0 0 0 0 0 0 0 0 0 0 0 0 0 0 0 0 0 0 0 0 0 0 0 0 0 0 0 0 0 0 0 0 0 0 0 0 0 0 0 0 0 0 0 0 0 0 0 0 0 0 0 0 0 0 0 0 0 0 0 0 0 0 0 0 0 0 0 0 0 0 0 0 0 0 0 0 0 0 0 0 0 0 0 0 0 0 0 0 0 0 0 0 0 0 0 0 0 0 0 0 0 0 0 0 0 0 0 0 0 0 0 0 0 0 0 0 0 0 0 0 0 0 0 0 0 0 0 0 0 0 0 0 0 0 0 0 0 0 0 0 0 0 0 0 0 0 0 0 0 0 0 0 0 0 0 0 0 0 0 0 0 0 0 0 0 0 0 0 0 0 0 0 0 0 0 0 0 0 0 0 0 0 0 0 0 0 0 0 0 0 0 0 0 0 0 0 0 0 0 0 0 0 0 0 0 0 0 0 0 0 0 0 0 0 0 0 0 0 0 0 0 0 0 0 0 0 0 0 0 0 0 0 0 0 0 0 0 0 0 0 0 0 0 0 0 0 0 0 0 0 0 0 0 0 0 0 0 0 0 0 0 0 0 0 0 0 0 0 0 0 0 0 0 0 0 0 0 0 0 0 0 0 0 0 0 0 0 0 0 0 0 0 0 0 0 0 0 0 0 0 0 0 0 0 0 0 0 0 0 0 0 0 0 0 0 0 0 0 0 0 0 0 0 0 0 0 0 0 0 0 0 0 0 0 0 0 0 0 0 0 0 0 0 0 0 0 0 0 0 0 0 0 0 0 0 0 0 0 0 0 0 0 0 0 0 0 0 0 0 0 0 0 0 0 0 0 0 0 0 0 0 0 0 0 0 0 0 0 0 0 0 0 0 0 0 0 0 0 0 0 0 0 0 0 0 0 0 0 0 0 0 0 0 0 0 0 0 0 0 0 0 0 0 0 0 0 0 0 0 0 0 0 0 0 0 0 0 0 0 0 0 0 0 0 0 0 0 0 0 0 0 0 0 0 0 0 0 0 0 0 0 0 0 0 0 0 0 0 0 0 0 0 0 0 0 0 0 0 0 0 0 0 0 0 
</DataArray>
<DataArray Name="HRRPUV" NumberOfComponents="1" type="UInt8" format="ascii">