<?xml version="1.0"?>
<VTKFile type="ImageData" version="1.0" byte_order="LittleEndian" header_type="UInt64">
<ImageData WholeExtent="25 50 0 25 1 1"
 Origin="15.0000 0.0000 0.0000" Spacing="0.6000 0.6000 0.6000">
<Piece Extent="25 50 0 25 1 1">
<PointData>
<DataArray Name="TEMPERATURE" NumberOfComponents="1" type="Float32" format="ascii">
33.0 34.7 38.9 38.0 33.1 30.7 28.3 28.5 31.6 31.2 27.2 25.0 23.9 23.2 23.3 24.0 25.1 26.2 27.1 27.5 27.1 26.6 25.2 24.3 24.0 23.0 34.9 35.7 37.4 36.3 32.4 30.6 29.5 29.6 32.1 32.6 30.2 28.5 26.3 24.8 24.7 25.5 26.5 27.2 27.8 28.1 27.8 27.4 26.4 25.5 24.9 24.1 35.9 35.5 35.6 34.2 31.9 31.5 32.0 33.1 34.6 34.4 32.8 30.9 28.1 26.4 26.6 28.1 29.2 29.5 29.6 29.1 28.4 27.7 27.0 26.4 25.7 25.0 33.5 33.4 34.6 35.4 35.8 34.5 34.9 38.2 39.0 37.5 35.0 32.5 30.0 28.9 29.3 30.3 31.1 31.3 31.2 30.5 29.3 28.0 27.0 26.8 26.3 25.6 33.8 34.9 36.0 43.2 45.7 40.1 38.8 40.8 40.5 39.4 38.3 36.6 34.5 33.4 33.6 33.5 32.8 31.9 31.1 30.4 29.1 27.8 26.9 26.7 26.1 25.3 41.6 42.4 44.0 54.3 55.4 49.0 46.3 43.6 40.0 37.7 37.7 37.5 36.5 36.2 36.7 36.4 34.8 32.9 31.4 30.4 29.2 28.0 27.0 26.5 25.7 24.8 50.7 50.1 53.2 60.9 59.7 55.6 53.0 48.4 42.9 37.1 35.3 35.7 35.7 36.1 36.6 37.0 35.6 33.2 31.4 30.4 29.5 28.5 27.5 26.9 25.8 24.7 55.1 52.4 56.7 63.3 61.8 57.8 55.1 51.1 46.3 39.0 34.1 33.5 33.5 33.4 33.3 33.7 33.5 32.1 30.9 30.5 30.0 29.4 28.5 27.8 26.5 24.7 57.7 54.2 57.9 63.7 63.9 58.9 54.9 52.5 49.3 42.8 35.5 31.9 30.9 29.9 29.1 28.9 29.3 29.6 29.7 30.1 30.3 30.3 29.3 28.9 27.3 25.1 60.8 60.6 62.2 62.5 61.8 57.3 53.1 53.5 52.2 47.5 40.0 33.8 30.6 28.4 27.0 26.3 26.5 26.9 27.5 28.6 29.6 30.2 29.7 29.8 28.4 26.1 61.7 67.2 66.0 58.1 54.0 51.9 50.7 53.2 53.5 50.8 45.2 38.0 32.5 29.0 27.0 25.8 25.6 26.0 26.6 27.8 29.1 30.2 29.8 30.2 30.0 28.6 60.6 69.1 64.9 52.5 45.4 46.0 48.4 50.9 51.3 50.3 46.5 39.7 33.6 29.9 27.6 26.2 25.6 25.6 26.0 26.7 27.9 29.0 28.9 29.6 30.3 29.7 65.4 71.7 66.0 53.2 42.2 41.8 44.2 44.3 44.9 45.9 44.0 38.6 32.9 29.3 27.3 26.1 25.5 25.4 25.5 26.0 26.9 27.6 27.6 28.7 30.1 30.0 71.9 73.9 68.5 57.0 42.9 38.6 38.2 36.3 37.1 39.4 38.9 35.5 31.4 28.5 26.7 25.7 25.3 25.2 25.2 25.5 26.0 26.4 26.3 27.8 29.9 30.3 66.9 63.9 63.3 56.0 42.5 35.9 33.8 31.6 31.3 33.1 33.4 32.1 30.5 29.0 27.2 25.6 25.1 25.0 25.0 25.3 25.4 25.6 25.6 27.4 29.8 30.3 54.4 49.2 55.0 54.3 42.0 34.5 32.0 29.2 28.2 29.0 29.8 30.3 30.8 31.2 29.8 27.2 25.6 25.1 25.1 25.1 25.0 25.1 25.4 27.3 29.6 30.0 44.6 42.5 52.5 61.0 52.0 45.4 40.7 30.0 27.6 27.4 28.0 29.3 30.9 32.6 32.5 30.0 27.1 25.5 25.2 25.1 24.9 25.0 25.4 27.5 29.8 30.0 41.1 51.4 64.9 76.8 76.8 74.7 63.2 37.4 29.6 28.8 28.5 29.2 30.5 32.0 33.0 32.0 28.9 26.3 25.4 25.2 25.1 25.3 25.8 27.9 29.8 29.7 57.8 81.8 93.4 96.4 95.7 95.2 84.1 51.8 35.7 33.8 31.3 30.4 30.8 31.5 32.2 32.1 29.8 27.0 25.6 25.3 25.4 25.9 26.6 28.4 29.3 28.7 85.4 112.6 116.5 106.5 94.5 90.4 84.5 62.8 48.3 41.8 34.6 31.7 31.7 31.7 31.5 31.0 29.5 27.2 25.8 25.5 25.5 26.0 26.6 28.1 28.8 27.9 99.6 125.0 121.1 103.0 90.8 88.3 86.9 82.3 68.9 48.3 36.3 32.8 32.0 31.6 30.9 30.1 28.9 27.3 26.2 25.9 25.7 25.8 26.0 27.5 28.6 28.1 115.2 129.0 119.5 102.3 98.6 104.4 102.9 93.9 72.9 47.6 37.2 34.1 32.1 31.1 30.4 29.8 29.0 27.9 26.9 26.6 26.3 26.5 26.8 28.4 29.4 28.7 131.8 130.5 116.2 104.6 103.4 106.5 92.8 73.8 59.0 44.2 37.9 34.9 32.4 30.8 30.1 29.8 29.2 28.3 27.3 27.0 26.9 27.8 28.6 29.6 29.9 29.0 123.3 114.8 96.9 94.6 96.1 91.2 71.3 54.8 50.5 43.4 37.3 34.5 32.7 30.8 29.9 29.5 28.9 28.0 27.0 26.7 26.8 28.0 28.9 29.4 29.1 28.2 100.5 96.6 74.1 72.3 78.4 74.8 62.1 50.4 46.3 40.5 34.7 33.7 33.8 31.7 30.1 29.4 28.7 27.7 26.6 26.1 26.1 27.2 28.1 28.5 28.4 27.6 69.2 79.5 57.5 51.7 61.2 63.6 56.0 47.7 40.1 34.0 31.9 33.9 34.9 32.6 30.3 29.3 28.4 27.4 26.4 25.8 25.6 26.5 27.3 28.0 28.3 27.7 
</DataArray>
</PointData>
</Piece>
</ImageData>
</VTKFile>
