<?xml version="1.0"?>
<VTKFile type="PolyData" version="1.0" byte_order="LittleEndian" header_type="UInt64">
<PolyData>
<Piece NumberOfPoints="3" NumberOfVerts="0" NumberOfLines="0" NumberOfPolys="0">
    <Points>
        <DataArray type="Float32" NumberOfComponents="3" format="ascii">
        3.7000 2.0000 1.8000 5.0000 2.0000 1.8000 6.9500 4.3400 1.8000 
        </DataArray>
    </Points>
    <PointData>
        <DataArray type="Float32" Name="tag" format="ascii">
            5.0000 9.0000 13.0000 
         </DataArray>
        <DataArray type="Float32" Name="PARTICLE TEMPERATURE(C)" format="ascii">
            20.8589 21.2916 23.3028 
         </DataArray>
        <DataArray type="Float32" Name="PARTICLE DIAMETER(mu-m)" format="ascii">
            20000.0000 20000.0000 20000.0000 
         </DataArray>
        <DataArray type="Float32" Name="PARTICLE AGE(s)" format="ascii">
            13.0069 13.0069 13.0069 
         </DataArray>
    </PointData>
</Piece>
</PolyData>
</VTKFile>