<?xml version="1.0"?>
<VTKFile type="ImageData" version="1.0" byte_order="LittleEndian" header_type="UInt64">
<ImageData WholeExtent="0 25 0 25 1 1"
 Origin="0.0000 0.0000 0.0000" Spacing="0.6000 0.6000 0.6000">
<Piece Extent="0 25 0 25 1 1">
<PointData>
<DataArray Name="TEMPERATURE" NumberOfComponents="1" type="Float32" format="ascii">
20.6 21.4 22.5 23.4 23.8 24.3 24.5 24.9 27.3 28.4 26.5 24.1 22.5 21.9 22.2 22.7 23.5 24.8 26.3 27.6 29.6 32.2 32.8 33.4 34.6 31.8 21.4 22.4 23.6 25.0 26.4 27.5 27.7 27.6 28.6 28.9 27.6 25.5 24.0 23.6 23.7 24.3 26.4 29.1 31.0 32.2 34.0 36.2 36.5 38.0 40.1 38.1 22.5 23.4 24.4 25.6 27.5 28.9 29.5 29.0 28.6 28.6 28.3 26.9 25.6 25.5 25.6 26.7 30.1 33.8 35.6 36.4 37.8 39.9 41.2 44.5 48.1 47.6 22.9 23.8 24.3 25.1 26.9 28.3 28.9 28.3 27.6 27.3 27.2 27.0 26.7 26.9 27.9 30.6 34.9 37.8 38.8 39.4 40.1 41.5 43.3 47.1 50.1 50.6 22.9 24.7 25.3 25.4 26.8 27.9 28.8 28.5 27.7 26.8 26.6 28.0 29.3 30.0 31.3 34.2 37.8 40.0 41.1 41.7 42.0 42.9 44.4 46.8 48.3 47.9 23.9 26.2 26.9 26.1 26.4 26.8 27.9 28.0 27.4 26.9 27.4 29.6 31.8 32.5 33.2 35.2 37.8 40.1 41.8 42.6 42.8 43.0 43.5 45.3 45.6 42.7 26.0 27.8 28.1 27.2 26.9 26.6 27.0 26.8 26.8 27.2 28.4 30.7 32.7 33.3 34.3 36.1 38.4 41.3 44.3 46.3 45.8 44.1 44.1 43.0 38.8 35.2 26.8 28.0 28.1 27.3 26.8 26.1 26.0 25.9 26.4 27.0 28.4 30.4 31.5 32.2 33.9 35.9 38.5 43.0 47.5 48.8 47.8 46.4 44.0 37.3 30.5 28.5 26.6 27.5 27.6 27.3 27.2 26.5 26.0 25.8 26.3 26.8 28.1 29.6 30.0 30.3 31.5 33.4 37.1 43.1 47.4 46.6 44.9 44.1 39.4 31.8 27.2 26.0 26.2 27.2 27.5 27.3 27.4 26.8 26.3 25.9 26.1 26.6 27.7 28.8 29.3 29.7 30.5 31.8 34.9 40.1 43.1 40.7 37.9 37.1 34.4 30.7 28.0 26.3 25.8 26.8 27.1 26.9 27.0 26.7 26.4 26.1 26.0 26.2 26.9 28.0 29.1 30.4 31.8 32.9 34.7 38.2 40.5 37.2 32.9 31.8 32.1 32.4 31.0 28.9 25.2 26.1 26.6 26.5 26.5 26.3 26.1 26.0 25.9 26.0 26.7 28.0 30.0 32.5 34.3 35.0 36.0 38.8 39.8 35.1 30.0 29.7 34.0 37.0 35.3 34.7 24.2 25.2 26.2 26.3 26.1 26.0 26.1 26.2 26.1 26.1 26.8 29.0 32.1 34.5 35.3 35.9 37.8 40.3 38.9 32.8 28.7 30.8 38.6 42.3 40.3 43.9 23.3 24.8 26.0 25.9 25.9 26.0 26.3 26.6 26.7 26.4 27.1 29.9 33.6 35.4 35.1 36.1 38.8 39.8 36.2 31.1 30.2 34.7 41.6 44.6 47.9 57.8 23.1 24.8 25.9 25.6 25.7 26.0 26.7 27.5 27.8 27.3 27.8 30.5 34.4 36.2 35.7 36.5 38.3 37.8 34.0 31.6 33.6 37.8 41.8 46.3 56.3 69.4 23.3 24.7 25.6 25.4 25.8 26.8 27.8 28.6 29.0 28.8 29.3 31.3 34.3 35.8 35.6 35.7 36.5 36.2 34.6 34.1 35.6 37.4 40.6 47.4 57.2 72.2 23.2 24.3 25.4 26.1 27.5 28.5 29.1 29.3 29.5 29.9 30.7 32.1 33.7 34.6 34.5 34.5 34.9 35.8 36.8 37.2 36.9 36.8 39.6 45.3 54.1 77.2 22.7 24.1 26.1 27.7 29.2 29.6 29.5 29.1 29.0 29.7 31.3 32.9 34.0 34.5 34.7 34.8 35.3 37.7 40.8 41.6 40.0 39.4 41.7 46.4 59.8 89.5 22.3 23.6 25.7 27.4 28.7 29.4 29.8 29.7 29.1 29.2 31.0 33.0 33.9 34.6 35.7 36.7 38.9 42.7 45.6 44.7 43.0 47.7 55.3 63.8 80.8 102.6 21.9 23.2 24.7 25.7 26.9 28.0 29.4 30.9 31.0 29.6 29.9 32.3 33.4 33.5 34.5 37.3 42.4 45.9 45.3 42.5 47.5 61.9 77.3 94.5 108.3 114.3 21.6 23.3 24.6 24.5 25.1 26.3 28.3 31.0 32.2 30.7 30.1 32.9 34.2 32.6 33.8 38.7 44.5 46.2 40.7 35.9 48.4 71.3 89.0 105.5 112.9 117.3 21.9 23.5 24.3 23.8 24.7 27.1 30.0 31.5 31.2 29.7 30.1 32.8 33.2 32.9 39.3 44.8 45.1 43.6 36.6 30.1 37.9 63.3 86.1 96.0 98.4 109.7 22.6 23.6 24.0 24.5 27.5 31.4 33.5 32.2 29.7 29.0 30.6 32.1 31.5 33.3 42.7 49.6 48.3 42.9 34.5 28.4 29.3 45.7 71.5 83.2 83.2 98.1 23.2 24.0 24.7 27.4 33.0 36.6 35.9 32.8 30.6 31.3 33.3 34.3 33.5 33.8 38.8 44.5 47.1 45.0 39.4 32.6 30.5 36.6 52.0 65.0 73.4 94.5 23.5 24.3 25.6 29.3 35.3 38.2 36.9 33.9 31.9 32.5 35.0 36.2 34.8 33.6 34.4 36.5 39.9 43.1 44.1 39.0 33.9 36.5 44.2 52.5 69.3 97.0 22.8 24.0 25.5 28.0 32.0 34.8 34.8 33.4 31.8 32.7 35.9 37.0 33.9 30.3 29.8 31.6 35.1 38.7 42.4 41.7 37.3 38.3 44.9 49.5 64.3 71.9 
</DataArray>
</PointData>
</Piece>
</ImageData>
</VTKFile>
