<?xml version="1.0"?>
<VTKFile type="ImageData" version="1.0" byte_order="LittleEndian" header_type="UInt64">
<ImageData WholeExtent="0 25 25 50 1 1"
 Origin="0.0000 15.0000 0.0000" Spacing="0.6000 0.6000 0.6000">
<Piece Extent="0 25 25 50 1 1">
<PointData>
<DataArray Name="TEMPERATURE" NumberOfComponents="1" type="Float32" format="ascii">
20.5 21.4 22.3 22.7 23.4 23.8 24.3 24.3 24.3 25.7 30.0 36.0 38.3 35.0 32.6 32.6 32.9 38.3 46.9 48.7 42.5 37.4 41.0 47.2 49.6 41.7 20.4 21.0 22.0 22.9 23.9 24.4 24.6 24.4 24.4 25.9 28.9 33.5 37.2 36.8 34.6 32.9 31.4 34.6 43.5 49.7 47.6 41.6 41.5 46.6 49.7 50.3 20.4 21.1 22.3 23.7 24.7 24.8 24.7 24.4 24.7 26.0 27.4 29.8 34.1 37.6 38.0 36.3 33.6 34.0 39.8 47.6 51.0 46.9 43.2 44.1 46.8 51.1 20.5 21.3 22.9 24.6 25.3 25.0 24.7 24.5 25.0 26.1 26.6 27.1 29.3 33.1 36.6 38.3 37.3 35.8 36.9 41.5 47.2 46.8 43.1 40.6 39.5 42.3 20.6 21.8 23.8 25.3 25.5 25.0 24.8 24.5 24.8 25.8 26.4 26.5 26.9 28.3 31.2 35.5 38.6 38.3 36.2 36.2 39.3 40.6 38.6 35.7 33.0 32.8 20.9 22.6 24.9 25.8 25.4 24.8 24.8 24.3 24.2 24.7 25.4 25.9 26.3 26.9 28.2 32.3 37.6 39.5 37.5 35.2 35.1 35.4 34.2 32.0 31.0 30.5 21.1 23.4 25.7 25.9 25.0 24.4 24.5 24.0 23.9 24.0 24.1 24.8 26.0 26.7 26.9 29.7 35.3 38.8 38.4 36.7 35.6 34.6 32.6 30.7 30.5 30.5 21.5 23.9 26.0 25.6 24.4 23.8 24.2 24.0 24.0 23.9 23.6 24.3 25.6 26.5 26.5 27.4 31.1 35.2 37.1 37.3 37.0 36.1 33.8 30.8 29.2 29.4 22.5 24.4 25.7 25.0 23.9 23.7 24.3 24.1 24.2 24.1 23.7 24.1 25.2 26.3 26.6 26.4 27.5 30.2 33.2 35.4 36.8 37.2 35.5 31.8 28.7 28.4 23.4 24.5 25.1 24.5 23.8 24.1 24.7 24.1 24.2 24.1 23.9 24.2 25.0 26.1 26.8 26.8 26.5 27.4 29.9 32.9 35.6 37.1 36.2 32.9 29.2 28.1 23.0 23.9 24.4 24.0 23.7 24.6 24.9 23.9 24.2 24.4 24.4 24.6 25.0 25.9 26.8 27.1 26.7 27.2 29.2 32.1 35.2 37.1 36.3 33.2 29.8 28.4 22.0 22.9 23.7 23.8 24.0 25.1 25.1 24.5 25.2 25.7 25.8 25.5 25.3 25.8 26.7 27.3 27.4 28.2 30.2 32.9 35.9 37.8 36.7 33.9 31.4 30.1 22.0 22.6 23.3 24.1 25.1 26.2 25.7 25.2 26.6 27.3 27.0 26.1 25.6 26.2 27.1 27.9 28.6 29.7 31.5 34.0 37.3 39.4 38.6 36.4 34.5 33.2 23.1 23.6 24.1 25.0 26.1 27.2 26.7 25.8 27.2 28.0 27.3 26.6 26.9 27.9 28.8 29.6 30.3 31.1 32.5 35.2 38.3 40.9 41.4 40.0 37.8 37.3 24.4 24.8 25.4 25.9 26.4 27.4 27.2 26.5 27.7 28.0 27.2 27.6 29.0 30.1 30.8 31.0 31.3 31.9 33.5 36.4 39.3 42.2 44.8 44.9 42.0 42.5 24.7 25.1 25.5 26.0 25.9 26.2 26.3 26.8 28.5 28.6 28.4 29.6 31.0 32.1 33.0 32.6 32.2 32.7 34.1 36.7 39.5 43.3 48.9 52.4 50.2 50.6 24.3 24.6 24.6 24.8 24.8 24.6 24.8 26.5 29.2 29.8 30.1 31.3 32.4 33.0 34.3 34.9 34.3 33.5 33.3 34.7 36.8 40.2 47.2 55.1 57.5 59.2 23.2 24.0 24.4 24.3 24.4 24.4 25.0 26.8 29.3 30.5 30.8 31.8 32.9 33.5 34.8 36.6 36.1 33.6 31.4 31.4 32.5 34.4 39.6 49.0 56.7 61.8 21.9 23.6 25.2 25.0 24.9 25.2 26.0 27.1 28.3 28.9 29.1 29.8 30.9 31.9 33.6 35.7 35.3 33.0 30.8 29.8 30.1 30.8 33.3 40.3 50.2 57.5 21.9 23.9 26.1 26.1 25.7 25.9 26.4 26.9 26.7 26.1 26.3 27.3 28.6 30.2 32.5 34.7 35.0 34.2 32.7 30.9 30.2 30.3 31.0 34.8 43.1 50.8 22.6 24.1 25.8 25.8 25.5 25.5 26.0 26.5 25.9 24.9 25.0 26.0 27.3 29.1 31.4 33.3 34.9 35.6 34.7 33.2 32.1 31.2 30.5 31.7 36.0 43.4 23.0 24.3 25.4 25.0 24.6 24.6 25.4 26.2 26.1 25.2 24.8 25.4 26.5 27.6 28.5 29.6 32.3 34.5 34.4 33.6 32.9 31.2 29.6 30.0 32.6 37.6 23.4 24.2 25.0 24.9 24.9 25.3 26.7 27.6 27.3 26.2 25.3 25.8 26.7 27.2 26.8 26.9 29.0 31.6 32.2 31.3 30.0 29.1 29.0 30.3 32.8 34.6 22.9 23.2 23.8 24.6 25.8 26.9 28.0 28.8 28.5 27.4 26.4 26.2 26.3 26.3 25.8 25.6 26.5 28.0 28.4 27.6 27.0 27.4 28.3 29.9 31.9 32.3 21.6 21.8 23.0 24.3 25.5 26.5 27.1 27.6 27.9 27.7 27.1 26.2 25.6 25.5 25.4 25.0 24.9 24.9 24.7 24.5 25.4 26.5 26.8 27.5 28.8 29.1 20.7 21.1 22.5 24.0 24.7 25.3 25.8 26.5 27.1 27.3 26.9 25.9 25.1 25.0 25.1 24.6 24.0 23.6 23.1 23.2 24.4 25.6 25.4 25.4 26.4 27.1 
</DataArray>
</PointData>
</Piece>
</ImageData>
</VTKFile>
