<?xml version="1.0"?>
<VTKFile type="PolyData" version="1.0" byte_order="LittleEndian" header_type="UInt64">
<PolyData>
<Piece NumberOfPoints="21" NumberOfVerts="0" NumberOfLines="0" NumberOfPolys="0">
    <Points>
        <DataArray type="Float32" NumberOfComponents="3" format="ascii">
        15.2072 20.7477 2.8640 15.9587 20.1545 2.6627 17.5308 19.0651 3.6046 15.7008 15.2398 1.2578 16.0175 17.2920 3.1178 16.5458 16.3546 0.5556 16.2249 16.1911 6.1353 15.6431 20.6596 2.7472 15.7966 18.0172 0.8875 17.0705 15.3890 1.4528 17.1731 18.7204 3.2386 15.7023 19.4563 5.2811 15.3192 15.5534 3.9199 17.1631 21.8545 7.7213 15.2427 20.4039 5.0627 16.8472 19.2167 8.0900 15.3430 15.8552 5.4847 15.9531 15.4316 6.3333 15.9393 15.5210 6.8553 15.1184 15.0396 6.9445 15.3724 15.2819 6.9608 
        </DataArray>
    </Points>
    <PointData>
        <DataArray type="Float32" Name="tag" format="ascii">
            214123.0000 220255.0000 225299.0000 229199.0000 232843.0000 234627.0000 238979.0000 247167.0000 248515.0000 252275.0000 269055.0000 296155.0000 300819.0000 352011.0000 360999.0000 500643.0000 659211.0000 687999.0000 690303.0000 695183.0000 699179.0000 
         </DataArray>
    </PointData>
</Piece>
</PolyData>
</VTKFile>