<?xml version="1.0"?>
<VTKFile type="ImageData" version="1.0" byte_order="LittleEndian" header_type="UInt64">
<ImageData WholeExtent="25 50 25 50 1 1"
 Origin="15.0000 15.0000 0.0000" Spacing="0.6000 0.6000 0.6000">
<Piece Extent="25 50 25 50 1 1">
<PointData>
<DataArray Name="TEMPERATURE" NumberOfComponents="1" type="Float32" format="ascii">
65.4 88.0 82.2 71.5 56.5 47.8 50.0 52.3 50.9 44.2 40.0 37.9 33.3 29.4 29.7 32.0 33.3 32.9 30.8 28.2 26.6 26.0 26.0 26.3 25.5 24.3 64.6 70.6 65.8 55.6 44.3 42.6 47.6 47.9 43.2 37.4 34.9 33.8 31.3 29.3 29.9 32.5 34.8 34.7 32.1 28.6 26.6 25.9 25.8 26.1 25.5 24.6 48.1 48.5 45.8 42.4 41.4 44.9 49.8 48.8 40.8 33.7 31.8 31.9 31.0 29.8 30.2 33.0 35.6 35.6 32.4 28.4 26.5 26.0 26.0 26.2 25.6 24.8 44.3 37.0 37.3 40.9 44.9 46.5 49.1 48.1 38.8 32.4 31.7 32.1 31.0 29.5 30.3 33.6 36.1 35.6 31.8 27.8 26.4 26.3 26.6 26.6 25.8 24.9 51.4 37.2 36.4 40.9 46.7 46.5 46.1 45.7 37.4 32.5 32.1 31.5 29.4 28.5 30.5 34.4 36.4 34.9 30.6 27.0 26.3 26.7 27.1 27.0 25.8 24.8 55.8 37.8 35.8 41.3 47.0 46.6 45.2 43.8 36.8 32.8 32.7 31.0 28.2 28.7 32.1 35.6 36.1 33.2 29.0 26.4 26.4 27.1 27.6 27.2 25.9 24.9 54.0 37.4 35.6 43.0 47.6 47.3 46.3 43.4 36.6 33.1 33.5 31.4 29.3 31.3 34.7 35.9 33.9 30.0 26.9 26.0 26.6 27.4 27.7 27.2 26.1 25.2 50.3 37.1 33.9 40.5 46.2 49.0 48.5 43.9 36.9 33.5 33.5 31.7 31.4 34.5 36.0 33.8 29.9 26.6 25.4 26.0 26.9 27.6 27.5 27.0 26.2 25.6 46.9 37.2 31.2 33.8 41.5 50.4 51.7 45.3 37.7 33.7 32.4 31.4 33.6 36.2 34.4 30.1 26.6 25.1 25.1 26.1 27.1 27.4 27.2 26.8 26.4 26.0 43.4 37.3 30.1 29.9 36.9 49.2 53.0 45.0 36.4 32.6 31.4 32.4 35.6 35.9 31.7 27.5 25.4 25.0 25.3 26.2 26.8 26.9 26.9 26.9 26.9 26.7 39.5 36.5 30.0 29.3 35.5 47.2 50.7 40.9 32.5 31.1 32.3 35.1 37.2 34.7 29.9 26.6 25.5 25.5 25.8 26.2 26.6 26.8 27.0 27.3 27.1 26.8 36.6 34.8 30.7 30.7 37.3 46.2 44.7 34.4 29.3 30.5 33.3 36.8 37.2 33.5 29.3 26.8 26.3 26.6 26.8 26.7 26.8 27.3 27.7 27.8 27.6 27.3 36.7 34.8 32.5 34.1 40.1 43.5 37.3 29.6 28.3 29.9 32.7 35.4 34.8 31.7 28.8 27.3 27.3 27.8 27.7 27.3 27.4 28.1 28.5 28.3 28.1 27.7 39.4 37.9 35.6 37.5 40.2 38.1 32.4 28.5 28.9 30.2 31.8 32.8 31.7 29.7 28.1 27.5 27.8 28.2 28.0 27.8 28.1 28.8 29.1 28.6 28.2 27.9 40.5 42.0 39.8 39.1 37.5 33.4 30.3 29.1 31.2 33.5 33.4 32.0 29.9 28.3 27.5 27.6 28.1 28.3 28.2 28.4 28.9 29.3 29.1 28.5 28.2 27.9 37.8 42.1 42.6 39.9 35.4 31.5 30.5 31.2 35.6 39.4 37.9 34.0 30.1 28.2 27.9 28.6 29.1 28.7 28.5 29.0 29.5 29.6 29.3 28.8 28.3 27.8 33.3 36.7 40.4 39.1 34.0 31.4 31.8 33.4 38.4 42.7 40.9 35.7 30.9 28.7 28.6 29.7 29.9 29.1 28.9 29.5 29.7 29.8 29.5 28.7 27.7 26.7 31.1 32.4 35.8 36.3 33.7 33.2 34.1 35.5 40.6 44.1 41.4 35.9 31.1 28.8 28.8 29.9 30.2 29.9 29.6 29.7 29.7 29.8 29.6 28.6 26.8 25.5 30.9 31.6 33.1 35.1 36.5 35.8 34.6 36.7 42.1 43.9 38.9 33.5 30.5 29.1 29.5 30.8 31.6 31.7 30.7 30.1 29.9 30.0 29.4 28.1 26.3 24.9 30.0 31.9 33.4 36.8 39.4 36.2 32.1 34.3 38.8 38.4 33.7 31.1 30.9 30.8 32.1 33.6 34.2 33.7 32.1 31.2 31.1 30.9 29.6 27.8 25.9 24.5 29.2 32.1 34.0 36.6 37.4 33.5 30.3 31.2 32.8 32.3 30.8 31.0 32.5 33.7 35.6 37.0 36.8 35.5 33.8 33.1 32.7 31.7 29.8 27.7 25.7 24.5 28.9 31.8 33.3 34.0 33.7 32.0 31.7 31.7 31.2 31.6 32.1 32.1 33.6 35.5 37.2 38.4 38.0 36.5 35.4 35.0 33.7 31.6 29.2 27.1 25.5 24.4 29.1 32.3 33.7 32.1 31.1 31.5 33.1 34.0 33.7 34.3 34.7 34.5 35.5 37.1 37.5 38.0 38.0 37.2 36.6 35.9 33.7 30.7 28.6 27.0 25.4 24.4 29.4 32.2 33.4 30.8 29.3 30.6 32.8 33.6 33.9 34.9 35.6 35.8 36.8 37.8 37.3 37.3 37.4 37.0 36.5 35.1 32.2 29.1 27.7 26.5 25.2 24.4 29.1 30.2 31.2 30.3 29.6 31.0 32.1 30.5 30.3 32.3 33.7 33.6 33.5 33.9 33.1 33.9 34.1 33.4 32.9 31.0 28.7 26.7 26.2 25.3 24.4 23.7 28.6 28.9 29.7 30.1 30.2 31.2 31.2 28.2 27.6 30.1 31.9 31.2 30.0 30.2 29.2 30.8 31.3 30.5 30.0 27.8 26.0 25.0 24.9 24.3 23.6 23.1 
</DataArray>
</PointData>
</Piece>
</ImageData>
</VTKFile>
