<?xml version="1.0"?>
<VTKFile type="PolyData" version="1.0" byte_order="LittleEndian" header_type="UInt64">
<PolyData>
<Piece NumberOfPoints="3600" NumberOfVerts="0" NumberOfLines="0" NumberOfPolys="0">
    <Points>
        <DataArray type="Float32" NumberOfComponents="3" format="ascii">
        16.1217 6.9056 4.9708 15.1444 5.7102 5.7483 15.2745 6.2473 5.6554 16.7850 8.9348 1.2927 17.2324 8.7550 2.2280 18.0917 10.1896 0.6586 16.8018 7.3371 5.3652 16.7143 6.7206 4.9640 16.5693 6.0505 4.8785 15.9616 6.0943 2.8970 17.1917 8.2924 0.8018 17.1071 6.8732 1.9300 16.9382 7.2249 3.6875 16.4567 6.5595 4.8302 16.0881 5.4585 5.7155 16.7755 9.2000 1.1230 16.1587 9.7158 5.4604 15.2730 5.1218 5.2456 16.3523 7.6867 3.5812 18.1132 11.2945 3.0939 17.1314 9.6036 0.6971 15.3464 9.8067 6.3620 15.0020 10.0000 1.8223 15.8436 10.2038 2.0626 17.3238 10.5662 0.7907 16.8316 8.6880 4.3838 17.2963 10.1526 1.4671 15.3604 10.0000 2.0715 17.5055 10.6053 1.6810 15.5985 9.8273 0.6647 17.4363 9.8949 2.9807 17.4104 11.0863 0.7898 16.0767 10.1292 1.7862 17.4848 9.8106 2.7270 17.4880 11.1477 0.5087 15.5909 9.8238 0.5474 15.1312 10.0000 2.1297 15.7587 10.7345 1.5700 15.4408 10.0000 0.9388 15.0000 8.9400 3.6836 17.4692 10.4401 1.1836 15.0630 8.5176 4.2901 17.1618 9.0571 2.5422 15.4294 10.0000 1.0266 15.7585 9.6385 4.8166 18.7299 10.3725 2.4772 18.6358 10.2971 2.5713 18.6130 10.2512 2.5941 15.3116 9.0022 3.8678 18.9069 10.3029 2.3002 18.8040 10.6654 2.3868 16.3119 10.0040 3.1664 18.7434 10.2883 2.4637 16.8438 5.9208 4.9666 16.8906 6.6157 4.1370 18.2082 10.0000 2.0085 18.2060 10.0000 1.8916 15.7990 9.1673 4.5658 18.7269 10.5201 2.4802 18.7838 10.4434 2.4233 18.0452 9.6530 1.0705 17.0899 7.4834 2.4293 17.3683 9.0889 0.7361 18.8347 10.6091 2.3567 16.2951 9.3342 2.0538 19.0387 10.3760 2.1684 18.2043 10.0002 1.8203 16.0742 7.5684 2.9732 16.7166 4.0766 5.6683 18.6067 10.2512 2.6004 18.8997 10.5181 2.3005 18.2788 8.7821 2.9914 16.5215 7.6270 2.9152 18.9332 10.2030 2.2739 17.0409 5.5458 4.2934 16.6839 5.3895 1.8592 18.9688 10.2704 2.2383 17.2636 10.7445 3.9435 17.0714 6.8895 5.2306 15.0530 7.2312 1.4280 17.3719 8.6593 3.2325 17.5290 7.5870 4.6648 15.1644 7.8360 0.6647 17.5121 7.8379 4.1956 17.2383 9.8137 0.8775 17.4439 9.3008 1.1293 17.2453 8.5493 2.0356 17.3658 8.6125 1.0842 17.2626 10.6315 3.9445 18.8521 11.2086 2.1042 17.1512 9.5712 0.6777 18.8267 10.6671 2.3702 16.5752 9.1283 2.7479 16.8666 8.8575 1.3173 17.0716 8.1799 3.0533 17.1095 9.2788 1.2530 16.9580 5.4932 5.3639 17.2224 9.9260 1.3290 17.9184 9.6350 0.7533 17.2153 7.8125 2.9628 17.3924 8.4956 2.3836 17.5539 8.8753 2.5903 16.8496 9.7143 2.0778 18.6207 10.7346 2.5864 17.7774 7.3909 4.7788 16.6653 5.6557 1.6590 16.2984 4.1026 3.8219 18.6903 10.3442 2.5168 16.3842 7.4598 3.8286 15.3153 3.0636 6.3577 17.0785 10.0877 1.2713 16.1840 4.1989 3.6140 18.7607 11.0120 2.2318 15.7760 2.4582 5.3632 18.7779 10.2199 2.4292 18.7832 10.6726 2.4239 18.1984 10.0000 1.7892 16.1900 8.9072 2.3287 18.1984 7.6714 2.1561 16.3092 2.7904 5.5922 18.1112 9.5394 1.2092 18.3892 7.6282 2.1969 18.7208 10.5002 2.4863 18.2850 10.5484 2.9221 18.0691 9.2683 1.4271 18.5282 10.6980 2.6789 18.6792 10.6266 2.5279 18.7355 10.4808 2.4716 17.5017 9.5246 1.2165 15.3197 3.9455 6.1665 18.6874 10.5914 2.5197 18.3062 10.2916 2.9009 17.4852 8.7058 1.6588 18.3016 11.1151 2.9055 16.6381 9.4042 1.7350 17.7966 6.7414 3.2925 18.3721 10.3516 2.8350 18.3964 10.3218 2.8108 15.5372 9.9442 1.1658 18.3978 10.5473 2.8093 18.6394 10.3295 2.5677 17.6368 6.8581 3.6968 17.5413 9.0216 0.8421 17.2681 8.6102 1.3064 18.7028 10.2535 2.5043 18.7190 10.5988 2.4881 17.7057 9.9673 2.5049 18.4314 10.4815 2.7757 16.8230 7.3997 3.2727 18.2341 10.3948 2.9730 18.5249 10.5329 2.6823 18.2030 10.0000 2.6543 18.3608 10.3560 2.8463 16.7292 11.0164 1.2804 17.2337 8.5922 1.1219 17.0313 8.0299 2.1548 17.1226 6.1129 2.1738 15.5626 8.3397 3.5995 15.4838 9.2880 3.6382 18.3753 10.7529 2.8318 18.5700 10.4243 2.6371 15.5537 8.2994 1.6185 15.9217 7.1581 3.4309 18.1315 10.7125 3.0756 18.5176 10.5447 2.6895 18.6387 10.6139 2.5684 17.2054 5.9996 4.3300 18.1057 10.5760 3.1015 18.2643 10.6492 2.9428 15.5485 7.9168 3.2687 17.2827 8.1691 1.1392 18.2663 10.2908 2.9408 18.5415 10.4663 2.6657 18.2273 9.3918 0.8331 15.4073 10.0000 1.0994 15.0423 8.8241 3.2840 15.3227 10.0000 1.7387 15.3110 8.6638 3.2358 18.2305 11.1969 2.9766 18.4978 10.5598 2.7093 18.2465 9.1321 1.3390 18.2068 10.0000 2.4541 18.1301 11.1100 3.0770 18.4187 10.2360 2.7884 15.4714 9.7949 0.9996 18.3724 10.2972 2.8347 17.9259 8.1061 3.0100 18.5632 10.5229 2.6439 18.5772 10.2133 2.6299 18.0113 10.5470 3.1958 15.4024 8.4640 3.6215 18.5701 10.2501 2.6370 18.3922 10.2673 2.8149 18.1365 10.0794 3.0706 18.2047 10.0000 2.5788 18.6246 10.6940 2.5825 16.7236 8.8988 1.1381 15.9306 3.7292 5.1223 18.3135 10.2562 2.8936 15.3600 8.9827 1.1836 18.3134 11.0565 2.8937 18.2072 10.0000 2.7347 15.6187 8.1919 0.9437 18.3767 10.4978 2.8304 15.3359 10.0000 1.1445 18.2695 10.4216 2.9376 17.7418 10.2495 3.4653 16.8140 6.8795 0.8804 16.8899 5.7502 2.1232 18.1162 10.8245 3.0909 18.2038 10.0000 2.5272 15.0730 3.9695 4.9059 17.0584 5.9680 1.5329 18.2019 10.0000 2.4405 18.2053 10.0000 2.0598 17.4208 6.4866 1.8681 18.1647 10.4499 3.0424 18.2878 11.2839 2.9193 16.7285 8.6374 1.2073 18.2036 10.0000 2.8230 15.0117 7.8169 1.2648 18.1316 10.9809 3.0755 18.1949 10.7622 3.0123 18.1272 11.0795 3.0799 16.4812 5.8925 2.5441 16.1854 8.0925 4.1125 15.4028 14.0000 1.8810 18.2158 10.9651 2.9913 15.5061 9.9667 1.5149 16.0952 7.2898 4.7254 15.5918 9.9164 1.4160 16.9434 9.8055 1.7885 16.6006 9.2672 2.6046 15.2223 7.6039 3.7933 18.0553 10.8531 3.1518 16.1817 8.5308 3.3656 15.4261 10.8538 6.3721 16.6793 14.6096 1.6379 16.5274 9.5459 2.0968 16.7393 10.0907 0.8489 15.4673 8.0422 3.3240 16.3985 9.2999 2.2711 16.6432 8.7687 2.0328 15.6070 11.8537 6.9282 15.4341 13.0692 4.9211 17.4064 7.2993 5.0697 15.0903 14.9727 3.4617 16.6579 6.3652 4.2498 15.3268 14.0000 3.1792 17.3295 11.3444 3.8776 15.7300 4.7860 8.0254 17.2640 6.9626 1.7990 17.1673 6.6745 1.5728 15.5100 8.9002 3.7555 17.2331 6.9383 1.4852 16.5497 9.1732 7.2364 17.2392 7.2817 0.9526 15.4618 5.7760 5.7173 16.9550 4.4331 5.2689 16.9462 6.4238 2.6212 16.8544 6.1306 3.0226 17.3165 1.5144 7.5938 16.5848 13.4236 4.6223 16.8496 5.8311 2.1811 17.7013 11.3797 3.5058 17.7596 11.1649 3.4475 16.8438 7.4788 1.8762 17.5497 10.3230 3.6574 17.4969 11.0622 3.7102 16.7519 7.6147 1.7053 16.9468 7.6349 1.3845 17.7048 11.0847 3.5023 17.6974 11.3920 3.5097 16.5798 6.6790 2.8522 16.6934 6.5171 3.1237 17.4087 11.3967 3.7984 17.7553 11.0720 3.4518 16.6384 5.2224 5.8069 17.5473 11.0020 3.6598 17.7527 11.1268 3.4544 17.6974 11.2247 3.5097 17.3152 11.3675 3.8919 16.3611 5.7417 4.8421 16.6150 6.2946 3.1041 16.6384 5.4717 3.9000 16.4016 6.0640 3.3052 16.5266 5.9276 3.9810 17.6511 11.2575 3.5560 16.6127 6.2685 3.1349 16.6591 6.1614 3.1167 17.7576 11.2300 3.4495 16.3488 4.8893 5.4129 17.6076 10.9511 3.5995 16.8561 5.8667 2.9110 16.8053 5.0598 3.7350 17.9656 10.9495 3.2415 17.4721 11.0298 3.7351 17.8851 11.1708 3.3220 15.4527 9.9943 2.4739 17.0201 6.3591 1.4815 17.8354 11.0639 3.3717 17.0704 3.5138 6.3075 17.7840 11.0377 3.4231 15.0416 8.7811 3.0340 17.0778 3.8702 5.2816 17.5694 11.1502 3.6377 17.5059 10.9099 3.7012 16.7555 5.0394 3.8351 15.1524 9.0536 1.1189 17.4350 10.9449 3.7721 18.0325 11.2439 3.1746 17.8063 10.9998 3.4008 17.4936 11.0281 3.7135 16.7601 5.1420 3.6694 16.8698 4.6755 4.2196 17.0355 6.5599 1.2821 17.6020 11.0868 3.6051 17.7311 10.8632 3.4760 17.7495 10.7613 3.4576 18.0614 10.6421 3.1457 17.7704 10.8516 3.4367 17.5263 11.0851 3.6809 17.3237 11.2556 3.8834 17.9911 11.2089 3.2160 17.2389 5.8844 2.7259 16.8848 6.3751 1.8250 17.1745 6.1169 2.0078 17.2106 4.4762 4.3545 17.5127 10.9391 3.6944 17.7114 10.8631 3.4957 15.4139 10.0000 2.8659 17.3422 10.2233 3.8649 17.0366 5.3724 3.1902 17.2211 5.9526 2.3595 17.4645 10.9822 3.7426 17.3729 10.1518 3.8342 17.4904 10.8120 3.7167 17.5052 10.9368 3.7019 17.4980 10.6004 3.7091 18.0285 11.3916 3.1786 18.0823 10.6797 3.1248 17.3209 11.3073 3.8862 16.7899 5.5311 1.8490 16.9277 5.3522 3.1721 17.0392 4.6803 3.9501 17.5546 10.9146 3.6525 17.5243 10.8496 3.6828 17.5865 10.9587 3.6206 16.9634 4.4367 4.2622 16.7521 5.4454 3.2068 17.4375 10.8248 3.7696 17.9825 10.5399 3.2246 17.6105 10.8255 3.5966 17.6542 11.2934 3.5529 15.0294 8.5323 1.4816 17.7345 10.6562 3.4726 17.6453 10.9558 3.5618 15.3529 10.0000 2.7089 16.7017 7.0868 1.0688 17.9375 10.6775 3.2696 17.8079 10.7930 3.3992 17.9953 10.8390 3.2118 17.7592 10.4811 3.4480 15.2913 10.1921 2.4715 17.7444 10.6248 3.4627 17.7139 10.1968 3.4932 17.8136 10.7327 3.3935 17.6669 10.6187 3.5402 17.7821 10.5867 3.4250 15.6070 9.8251 2.2844 17.8930 10.6854 3.3141 15.5261 9.9190 1.6231 17.7086 10.5777 3.4985 17.6181 10.6322 3.5890 17.5672 11.2521 3.6399 17.6604 10.6041 3.5467 17.8013 11.3921 3.4058 15.8635 9.8126 1.7778 17.9437 11.1891 3.2634 17.6244 10.3391 3.5827 17.7116 11.1454 3.4955 16.5325 5.3601 4.1587 16.3694 5.9767 3.4340 15.9589 6.8767 1.3477 16.4964 6.5098 2.0821 15.5831 9.6616 3.1005 18.2051 11.2584 3.0020 17.6136 10.6593 3.5935 17.7914 10.4858 3.4157 16.4014 6.7495 1.8605 16.5092 6.9964 1.2954 17.8286 10.9531 3.3785 15.3233 8.2966 3.2914 17.9517 10.8425 3.2554 17.6145 10.6602 3.5926 17.5956 10.7044 3.6115 17.8857 10.8555 3.3214 15.8955 9.4158 2.6582 17.6758 10.0715 3.5313 18.0558 10.8028 3.1513 17.7495 10.5447 3.4576 17.8465 10.8855 3.3606 17.7917 11.3526 3.4154 16.5329 7.0451 1.0307 16.3626 5.6813 2.7517 17.9847 10.7617 3.2224 17.9839 10.9208 3.2232 17.9195 10.7235 3.2876 18.0268 10.8486 3.1803 17.9195 10.8840 3.2876 17.5017 10.7831 3.7054 17.8093 11.2050 3.3978 16.1917 7.1870 1.2462 15.8036 6.7086 1.4277 17.6003 11.0919 3.6068 17.7031 10.4066 3.5040 15.1960 7.4639 3.8056 15.6072 6.9488 2.7319 18.0338 10.7154 3.1733 17.9769 10.2707 3.2302 17.5547 11.0051 3.6524 15.9783 8.7588 1.6143 16.4359 6.4654 1.8931 16.4169 5.3072 3.8853 15.3860 6.4779 1.8756 17.8063 11.3826 3.4008 17.7185 10.7065 3.4886 17.7392 10.6771 3.4679 17.6519 10.5073 3.5553 15.4353 7.4591 2.8528 17.8328 10.16
[...]
    <PointData>
        <DataArray type="Float32" Name="tag" format="ascii">
            5655.0000 7575.0000 8095.0000 8603.0000 12283.0000 14587.0000 15847.0000 19307.0000 21271.0000 25915.0000 29691.0000 30607.0000 37327.0000 46743.0000 46911.0000 50311.0000 52543.0000 52967.0000 53999.0000 56287.0000 57103.0000 58319.0000 60415.0000 63215.0000 66411.0000 66647.0000 68339.0000 68751.0000 69699.0000 70591.0000 71051.0000 71123.0000 71983.0000 74351.0000 74511.0000 74907.0000 75247.0000 75251.0000 76479.0000 76527.0000 77535.0000 79115.0000 80383.0000 80951.0000 84163.0000 84407.0000 85591.0000 85607.0000 86295.0000 88047.0000 89015.0000 89111.0000 89647.0000 90131.0000 90407.0000 90883.0000 91119.0000 91523.0000 91535.0000 93151.0000 93523.0000 93675.0000 94219.0000 94835.0000 96355.0000 96891.0000 100151.0000 100163.0000 101167.0000 101983.0000 102083.0000 104463.0000 105075.0000 106759.0000 110307.0000 112607.0000 114151.0000 115683.0000 116987.0000 117667.0000 118271.0000 118511.0000 119115.0000 120251.0000 120343.0000 122131.0000 123987.0000 124283.0000 126339.0000 126543.0000 126691.0000 127959.0000 128123.0000 129619.0000 130483.0000 131767.0000 132075.0000 133759.0000 133895.0000 134307.0000 135947.0000 137751.0000 139615.0000 141203.0000 141239.0000 142059.0000 142243.0000 143027.0000 143039.0000 143263.0000 145215.0000 145659.0000 147327.0000 147415.0000 148279.0000 148331.0000 148447.0000 150131.0000 150163.0000 151771.0000 151803.0000 152383.0000 153399.0000 154867.0000 154907.0000 156127.0000 157359.0000 158267.0000 158467.0000 159763.0000 159783.0000 159955.0000 160463.0000 161095.0000 161259.0000 162187.0000 162579.0000 162623.0000 162755.0000 162847.0000 163707.0000 164435.0000 164539.0000 164579.0000 165899.0000 166051.0000 166175.0000 166255.0000 166591.0000 167383.0000 167631.0000 167643.0000 167671.0000 167999.0000 168547.0000 168703.0000 168727.0000 169091.0000 169219.0000 169391.0000 169503.0000 169675.0000 169739.0000 171099.0000 171399.0000 171479.0000 172155.0000 173375.0000 173431.0000 173435.0000 174735.0000 174919.0000 175087.0000 176659.0000 177051.0000 177123.0000 177239.0000 177499.0000 177527.0000 177739.0000 178375.0000 178795.0000 178839.0000 179067.0000 179707.0000 181371.0000 182403.0000 182807.0000 182975.0000 182995.0000 183075.0000 183399.0000 185263.0000 185335.0000 185475.0000 185511.0000 186563.0000 188391.0000 189315.0000 189451.0000 191059.0000 193395.0000 195267.0000 196375.0000 198667.0000 198715.0000 199255.0000 199851.0000 200047.0000 200903.0000 200915.0000 200923.0000 202007.0000 202219.0000 202299.0000 203207.0000 204243.0000 204407.0000 205875.0000 206291.0000 206855.0000 208419.0000 208839.0000 208903.0000 209843.0000 212979.0000 214495.0000 214515.0000 214619.0000 215783.0000 216639.0000 217319.0000 217467.0000 217555.0000 218187.0000 219507.0000 220151.0000 227175.0000 228511.0000 229743.0000 232031.0000 235611.0000 238319.0000 238923.0000 240487.0000 243527.0000 243723.0000 244871.0000 244987.0000 248543.0000 249975.0000 251011.0000 252603.0000 253331.0000 254111.0000 254991.0000 255867.0000 257135.0000 257691.0000 259467.0000 259931.0000 260747.0000 260759.0000 261347.0000 261743.0000 262411.0000 264331.0000 265503.0000 265531.0000 266419.0000 266559.0000 266811.0000 266891.0000 267967.0000 268067.0000 268751.0000 268955.0000 269711.0000 270527.0000 270947.0000 272347.0000 272451.0000 273191.0000 273483.0000 273639.0000 273647.0000 273731.0000 274195.0000 275019.0000 275411.0000 275663.0000 276987.0000 277299.0000 278207.0000 278295.0000 278823.0000 279031.0000 279051.0000 279119.0000 280071.0000 280755.0000 281795.0000 282259.0000 282539.0000 283135.0000 283459.0000 283699.0000 284599.0000 285175.0000 285207.0000 285283.0000 285327.0000 285427.0000 285587.0000 285955.0000 286023.0000 286619.0000 286699.0000 287767.0000 287899.0000 288111.0000 288159.0000 288419.0000 288479.0000 288667.0000 288831.0000 289059.0000 289187.0000 289431.0000 289495.0000 289547.0000 289755.0000 290171.0000 290403.0000 291043.0000 291099.0000 291131.0000 291155.0000 291371.0000 291399.0000 291443.0000 291511.0000 292099.0000 292187.0000 292287.0000 292635.0000 292763.0000 292883.0000 293351.0000 293855.0000 294271.0000 294343.0000 294423.0000 294659.0000 294711.0000 295927.0000 295955.0000 296135.0000 297027.0000 297291.0000 297587.0000 297699.0000 297895.0000 298755.0000 298935.0000 299039.0000 299095.0000 299155.0000 299203.0000 299427.0000 300483.0000 300499.0000 300619.0000 300627.0000 300631.0000 300695.0000 300887.0000 300915.0000 301063.0000 301127.0000 301135.0000 301307.0000 301619.0000 301639.0000 301859.0000 302019.0000 302107.0000 302223.0000 302371.0000 303023.0000 303115.0000 303587.0000 303731.0000 303851.0000 303903.0000 303911.0000 303951.0000 303991.0000 304003.0000 304055.0000 304063.0000 304135.0000 304251.0000 304435.0000 304931.0000 305195.0000 305243.0000 305267.0000 305419.0000 305423.0000 305563.0000 305687.0000 306459.0000 306583.0000 306783.0000 306831.0000 306899.0000 307127.0000 307163.0000 307171.0000 307491.0000 307519.0000 307863.0000 308003.0000 308147.0000 308399.0000 308523.0000 308555.0000 308663.0000 308711.0000 308827.0000 308899.0000 309023.0000 309059.0000 310155.0000 310383.0000 310391.0000 310415.0000 310563.0000 310735.0000 310771.0000 311715.0000 311843.0000 311903.0000 311935.0000 312155.0000 312335.0000 312395.0000 312759.0000 313443.0000 313467.0000 313483.0000 313547.0000 313571.0000 313587.0000 313699.0000 313755.0000 313847.0000 313931.0000 313951.0000 314039.0000 314623.0000 314715.0000 314767.0000 314799.0000 314811.0000 314891.0000 315203.0000 315223.0000 315767.0000 316023.0000 316319.0000 316343.0000 316487.0000 316563.0000 316783.0000 317227.0000 317271.0000 317335.0000 317351.0000 317367.0000 317399.0000 317459.0000 317495.0000 317635.0000 317731.0000 318323.0000 318435.0000 318491.0000 318515.0000 318539.0000 318555.0000 318739.0000 318747.0000 318835.0000 318891.0000 318899.0000 318919.0000 318963.0000 319475.0000 319787.0000 319799.0000 320119.0000 320323.0000 320351.0000 320467.0000 320563.0000 320919.0000 320999.0000 321023.0000 321115.0000 321347.0000 321447.0000 322331.0000 322391.0000 322495.0000 322575.0000 322603.0000 322675.0000 322707.0000 322747.0000 322935.0000 323203.0000 323371.0000 323807.0000 323815.0000 323819.0000 323823.0000 323967.0000 324027.0000 324271.0000 324287.0000 324347.0000 324363.0000 324467.0000 325271.0000 325427.0000 325523.0000 325527.0000 325547.0000 325727.0000 326799.0000 326863.0000 326875.0000 326911.0000 326947.0000 327003.0000 327031.0000 327063.0000 327095.0000 327107.0000 327171.0000 327175.0000 327251.0000 327315.0000 327747.0000 328007.0000 328291.0000 328315.0000 328363.0000 328427.0000 328491.0000 328515.0000 328643.0000 328727.0000 328951.0000 329899.0000 329991.0000 330087.0000 330107.0000 330131.0000 330203.0000 330315.0000 330331.0000 330435.0000 330471.0000 331419.0000 331443.0000 331571.0000 331587.0000 331603.0000 331611.0000 331691.0000 331747.0000 331767.0000 332487.0000 332495.0000 332867.0000 332955.0000 333055.0000 333191.0000 333235.0000 333283.0000 333619.0000 333967.0000 334443.0000 334459.0000 334463.0000 334467.0000 334515.0000 334591.0000 334687.0000 334715.0000 335031.0000 335055.0000 335779.0000 335911.0000 335951.0000 336031.0000 336063.0000 336087.0000 336095.0000 336123.0000 336163.0000 336847.0000 336899.0000 336923.0000 337451.0000 337491.0000 337555.0000 337595.0000 337603.0000 337691.0000 337699.0000 337739.0000 337771.0000 337971.0000 338199.0000 338895.0000 339023.0000 339135.0000 339231.0000 339247.0000 339287.0000 339391.0000 339395.0000 339411.0000 339435.0000 339447.0000 339891.0000 339915.0000 339951.0000 340055.0000 340703.0000 340751.0000 340907.0000 340931.0000 340995.0000 340999.0000 341163.0000 341259.0000 341411.0000 341439.0000 341755.0000 342091.0000 342615.0000 342687.0000 342839.0000 342979.0000 343967.0000 344035.0000 344151.0000 344167.0000 344199.0000 344203.0000 344227.0000 344419.0000 344451.0000 344507.0000 344515.0000 344659.0000 345191.0000 345911.0000 345963.0000 345983.0000 346051.0000 346095.0000 346319.0000 346335.0000 346479.0000 346503.0000 346879.0000 346935.0000 347007.0000 347251.0000 347671.0000 347811.0000 347839.0000 347911.0000 347935.0000 347943.0000 347959.0000 347971.0000 348059.0000 348067.0000 348075.0000 348147.0000 348243.0000 348435.0000 348479.0000 348583.0000 348595.0000 348639.0000 349135.0000 349455.0000 349491.0000 349507.0000 349727.0000 349747.0000 349955.0000 349991.0000 350083.0000 350091.0000 350139.0000 350215.0000 350935.0000 351147.0000 351315.0000 351335.0000 351499.0000 351555.0000 351619.0000 351759.0000 351795.0000 351867.0000 351895.0000 351919.0000 352011.0000 352243.0000 352875.0000 353103.0000 353175.0000 353191.0000 353355.0000 353375.0000 353611.0000 353711.0000 353747.0000 353755.0000 354047.0000 354527.0000 354815.0000 355059.0000 355159.0000 355351.0000 355467.0000 355527.0000 355595.0000 355655.0000 356003.0000 356539.0000 356699.0000 357135.0000 357167.0000 357275.0000 357479.0000 357663.0000 357671.0000 357795.0000 357899.0000 358679.0000 358687.0000 358851.0000 358871.0000 358955.0000 358995.0000 359091.0000 359167.0000 359195.0000 359203.0000 359215.0000 359243.0000 359259.0000 359279.0000 360531.0000 360719.0000 360755.0000 360787.0000 360791.0000 361011.0000 361147.0000 361171.0000 361387.0000 361987.0000 362299.0000 362467.0000 362487.0000 362891.0000 363075.0000 363131.0000 363311.0000 363815.0000 363875.0000 364211.0000 364363.0000 364591.0000 364991.0000 365391.0000 365811.0000 365879.0000 366195.0000 366207.0000 366487.0000 366543.0000 367123.0000 367367.0000 367591.0000 367595.0000 367623.0000 367731.0000 367911.0000 368023.0000 368031.0000 368043.0000 368099.0000 368179.0000 368231.0000 368239.0000 368571.0000 369259.0000 369363.0000 369547.0000 369567.0000 369607.0000 369671.0000 369735.0000 370327.0000 370807.0000 370863.0000 370907.0000 371023.0000 371095.0000 371855.0000 372191.0000 372355.0000 372483.0000 372547.0000 372631.0000 372667.0000 372691.0000 372747.0000 372823.0000 372855.0000 373047.0000 373143.0000 373751.0000 373983.0000 374007.0000 374011.0000 374027.0000 374099.0000 374143.0000 374183.0000 374559.0000 374771.0000 374843.0000 375539.0000 375679.0000 375959.0000 375963.0000 376035.0000 376123.0000 376259.0000 376763.0000 376859.0000 377239.0000 377295.0000 377311.0000 377495.0000 377547.0000 377631.0000 377691.0000 377775.0000 377811.0000 377851.0000 377855.0000 378051.0000 378283.0000 378431.0000 378659.0000 378775.0000 378811.0000 378879.0000 379211.0000 379235.0000 379255.0000 380063.0000 380187.0000 380375.0000 380491.0000 380511.0000 380627.0000 380991.0000 381051.0000 381091.0000 381107.0000 381171.0000 381215.0000 381219.0000 381387.0000 381631.0000 381815.0000 381991.0000 382127.0000 382255.0000 382291.0000 382331.0000 382419.0000 383219.0000 383511.0000 383927.0000 384047.0000 384083.0000 384091.0000 384171.0000 384223.0000 384299.0000 384443.0000 385231.0000 385415.0000 385607.0000 385643.0000 386079.0000 386111.0000 386179.0000 386347.0000 386667.0000 386775.0000 387183.0000 387259.0000 387275.0000 387423.0000 387755.0000 388163.0000 388511.0000 389051.0000 389071.0000 389291.0000 389335.0000 389759.0000 389787.0000 389855.0000 390475.0000 390635.0000 390643.0000 390727.0000 390823.0000 390971.0000 391091.0000 391319.0000 391587.0000 391751.0000 391835.0000 391903.0000 391939.0000 391979.0000 392171.0000 392175.0000 392195.0000 392239.0000 392263.0000 392439.0000 392455.0000 392599.0000 392727.0000 392919.0000 393191.0000 393499.0000 393887.0000 394143.0000 394183.0000 394347.0000 395239.0000 395379.0000 395539.0000 395587.0000 395619.0000 396387.0000 396719.0000 397043.0000 397299.0000 397455.0000 397463.0000 397519.0000 397575.0000 398927.0000 398991.0000 399151.0000 399187.0000 399367.0000 399483.0000 400035.0000 400119.0000 400403.0000 400719.0000 401051.0000 401827.0000 401851.0000 402015.0000 402447.0000 402519.0000 402539.0000 402715.0000 403771.0000 404043.0000 404047.0000 404631.0000 404971.0000 405243.0000 405463.0000 405755.0000 406039.0000 406151.0000 406247.0000 406507.0000 407079.0000 407927.0000 408143.0000 408231.0000 408391.0000 408791.0000 408967.0000 409091.0000 409127.0000 409303.0000 409451.0000 410067.0000 410403.0000 410515.0000 410611.0000 410759.0000 411123.0000 411167.0000 411407.0000 411471.0000 411727.0000 411951.0000 412111.0000 412439.0000 412755.0000 412975.0000 413135.0000 413191.0000 413235.0000 413379.0000 413415.0000 413483.0000 413763.0000 413847.0000 413999.0000 414575.0000 414615.0000 414679.0000 414779.0000 414855.0000 414887.0000 414931.0000 415055.0000 415351.0000 416311.0000 416347.0000 416387.0000 416419.0000 416655.0000 416831.0000 416995.0000 417291.0000 417535.0000 417595.0000 417707.0000 417775.0000 417947.0000 418143.0000 418159.0000 418563.0000 418575.0000 418791.0000 418831.0000 418995.0000 419015.0000 419059.0000 419183.0000 419263.0000 419431.0000 419551.0000 419711.0000 419719.0000 420275.0000 420323.0000 420351.0000 420471.0000 420739.0000 420779.0000 420903.0000 421067.0000 421659.0000 422131.0000 422651.0000 422739.0000 422743.0000 422851.0000 423023.0000 423083.0000 423775.0000 423919.0000 423959.0000 424243.0000 424291.0000 424323.0000 424431.0000 424695.0000 424907.0000 424931.0000 425087.0000 425335.0000 425383.0000 425643.0000 425719.0000 426399.0000 426471.0000 426771.0000 426947.0000 427131.0000 427199.0000 427207.0000 427391.0000 427915.0000 428171.0000 428279.0000 428323.0000 428427.0000 428819.0000 428863.0000 428959.0000 429127.0000 429239.0000 429403.0000 429599.0000 429643.0000 429963.0000 430027.0000 430047.0000 430063.0000 430131.0000 430415.0000 430931.0000 431179.0000 431291.0000 431423.0000 431899.0000 431903.0000 431983.0000 432243.0000 432351.0000 432723.0000 432835.0000 432911.0000 433567.0000 433707.0000 433759.0000 433855.0000 433883.0000 433891.0000 434047.0000 434207.0000 434607.0000 434727.0000 435139.0000 435335.0000 435395.0000 435791.0000 436059.0000 436315.0000 436343.0000 436543.0000 436943.0000 437415.0000 437527.0000 437963.0000 438255.0000 438379.0000 438663.0000 438855.0000 438863.0000 438951.0000 439379.0000 439703.0000 440383.0000 440531.0000 440587.0000 440715.0000 440831.0000 440847.0000 441067.0000 441147.0000 441195.0000 441479.0000 441727.0000 441775.0000 442179.0000 442219.0000 442311.0000 442483.0000 442819.0000 442943.0000 443191.0000 444095.0000 444175.0000 444455.0000 444651.0000 444723.0000 444751.0000 444871.0000 444919.0000 444951.0000 445043.0000 445251.0000 445279.0000 445423.0000 445551.0000 445635.0000 445827.0000 445871.0000 446035.0000 446079.0000 446331.0000 446359.0000 446371.0000 446391.0000 446503.0000 447255.0000 447435.0000 447643.0000 447687.0000 447759.0000 447819.0000 447951.0000 447983.0000 448135.0000 448179.0000 448263.0000 448275.0000 448295.0000 448359.0000 448539.0000 448899.0000 448947.0000 449299.0000 449315.0000 449455.0000 449519.0000 449627.0000 449855.0000 449867.0000 449895.0000 449899.0000 449979.0000 450019.0000 450379.0000 450459.0000 450467.0000 450531.0000 450603.0000 451011.0000 451115.0000 451359.0000 451463.0000 451507.0000 451787.0000 451959.0000 452283.0000 452455.0000 452587.0000 452739.0000 452755.0000 452763.0000 452851.0000 452931.0000 452975.0000 453087.0000 453099.0000 453155.0000 453275.0000 453331.0000 453415.0000 453491.0000 453751.0000 453919.0000 453955.0000 453979.0000 454095.0000 454263.0000 454435.0000 454463.0000 454651.0000 454683.0000 454779.0000 454827.0000 454911.0000 454967.0000 455131.0000 455251.0000 455271.0000 455283.0000 455379.0000 455411.0000 455415.0000 455515.0000 455607.0000 455675.0000 455715.0000 455867.0000 455923.0000 455927.0000 456143.0000 456195.0000 456211.0000 456363.0000 456551.0000 456995.0000 457027.0000 457087.0000 457147.0000 457283.0000 457339.0000 457383.0000 457563.0000 457687.0000 457775.0000 457939.0000 458075.0000 458131.0000 458151.0000 458395.0000 458623.0000 458667.0000 458679.0000 458735.0000 458879.0000 458931.0000 458959.0000 459103.0000 459135.0000 459343.0000 460079.0000 460139.0000 460175.0000 460271.0000 460303.0000 460463.0000 460663.0000 460867.0000 460891.0000 460907.0000 461363.0000 461471.0000 461611.0000 461707.0000 461915.0000 461931.0000 462043.0000 462191.0000 462283.0000 462319.0000 462335.0000 462815.0000 462887.0000 462995.0000 463139.0000 463195.0000 463479.0000 463539.0000 463571.0000 463631.0000 463659.0000 463671.0000 463691.0000 463727.0000 463935.0000 464031.0000 464207.0000 464447.0000 464587.0000 464803.0000 464975.0000 465055.0000 465255.0000 465291.0000 465319.0000 465559.0000 465711.0000 465763.0000 465939.0000 465995.0000 466127.0000 466407.0000 466603.0000 466615.0000 466627.0000 466679.0000 466683.0000 466731.0000 466859.0000 466867.0000 466979.0000 467015.0000 467083.0000 467359.0000 467427.0000 467439.0000 467615.0000 467747.0000 467771.0000 467991.0000 468191.0000 468207.0000 468223.0000 468235.0000 468407.0000 468439.0000 468443.0000 468491.0000 468507.0000 468519.0000 468643.0000 469015.0000 469247.0000 469303.0000 469383.0000 469687.0000 469699.0000 469707.0000 469735.0000 469815.0000 470123.0000 470203.0000 470275.0000 470543.0000 471139.0000 471167.0000 471435.0000 471483.0000 471487.0000 471503.0000 471623.0000 471679.0000 471779.0000 471831.0000 471867.0000 471891.0000 471907.0000 472071.0000 472231.0000 472407.0000 472447.0000 472787.0000 473175.0000 473235.0000 473307.0000 473407.0000 473647.0000 473835.0000 473871.0000 473983.0000 474059.0000 474191.0000 474195.0000 474315.0000 474363.0000 474463.0000 474655.0000 474715.0000 474771.0000 474791.0000 474803.0000 474847.0000 475027.0000 475047.0000 475063.0000 475071.0000 475151.0000 475183.0000 475319.0000 475603.0000 475667.0000 475899.0000 475955.0000 475983.0000 476327.0000 476363.0000 476543.0000 476615.0000 476707.0000 476779.0000 476823.0000 476843.0000 476883.0000 476903.0000 477011.0000 477023.0000 477055.0000 477423.0000 477439.0000 477611.0000 478015.0000 478171.0000 478179.0000 478243.0000 478255.0000 478307.0000 478411.0000 478423.0000 478431.0000 478463.0000 478483.0000 478491.0000 478531.0000 478571.0000 478607.0000 478643.0000 478683.0000 478815.0000 478867.0000 479091.0000 479235.0000 479439.0000 479703.0000 479779.0000 479815.0000 479827.0000 479875.0000 479911.0000 479955.0000 480007.0000 480035.0000 480083.0000 480115.0000 480143.0000 480155.0000 480171.0000 480219.0000 480227.0000 480267.0000 480319.0000 480367.0000 480659.0000 481255.0000 481279.0000 481395.0000 481547.0000 481555.0000 481647.0000 481651.0000 481719.0000 481799.0000 482123.0000 482131.0000 482143.0000 482351.0000 482411.0000 482415.0000 482763.0000 482923.0000 483043.0000 483255.0000 483263.0000 483279.0000 483295.0000 483307.0000 483315.0000 483423.0000 483443.0000 483507.0000 483587.0000 483735.0000 483903.0000 484163.0000 484179.0000 484211.0000 484311.0000 484455.0000 484711.0000 484795.0000 484819.0000 484987.0000 485019.0000 485295.0000 485319.0000 485327.0000 485331.0000 485339.0000 485363.0000 485387.0000 485451.0000 485491.0000 485495.0000 485547.0000 485827.0000 486167.0000 486227.0000 486471.0000 486475.0000 486531.0000 486543.0000 486571.0000 486691.0000 486899.0000 486923.0000 486935.0000 486967.0000 487075.0000 487307.0000 487479.0000 487555.0000 487615.0000 487787.0000 487807.0000 488015.0000 488047.0000 488063.0000 488067.0000 488091.0000 488111.0000 488135.0000 488143.0000 488235.0000 488283.0000 488295.0000 488319.0000 488343.0000 488351.0000 488467.0000 488499.0000 488511.0000 488519.0000 488527.0000 488587.0000 488667.0000 488755.0000 488839.0000 488855.0000 488927.0000 489455.0000 489471.0000 489723.0000 489739.0000 489759.0000 489763.0000 490007.0000 490063.0000 490075.0000 490087.0000 490111.0000 490115.0000 490175.0000 490223.0000 490227.0000 490263.0000 490323.0000 490327.0000 490391.0000 490407.0000 490475.0000 490491.0000 490495.0000