<?xml version="1.0"?>
<VTKFile type="RectilinearGrid" version="1.0" byte_order="LittleEndian" header_type="UInt64">
<RectilinearGrid WholeExtent="25 50 25 50 0 15">
<Piece Extent="25 50 25 50 0 15">
<Coordinates>
<DataArray type="Float64" Name="Array X-Axis" format="ascii" RangeMin="15.0" RangeMax="30.0">
15.0 15.6 16.2 16.8 17.4 18.0 18.6 19.2 19.8 20.4 21.0 21.6 22.2 22.8 23.4 24.0 24.6 25.2 25.8 26.4 27.0 27.6 28.2 28.8 29.4 30.0 
</DataArray>
<DataArray type="Float64" Name="Array Y-Axis" format="ascii" RangeMin="15.0" RangeMax="30.0">
15.0 15.6 16.2 16.8 17.4 18.0 18.6 19.2 19.8 20.4 21.0 21.6 22.2 22.8 23.4 24.0 24.6 25.2 25.8 26.4 27.0 27.6 28.2 28.8 29.4 30.0 
</DataArray>
<DataArray type="Float64" Name="Array Z-Axis" format="ascii" RangeMin="0.0" RangeMax="9.0">
0.0 0.6 1.2 1.8 2.4 3.0 3.6 4.2 4.8 5.4 6.0 6.6 7.2 7.8 8.4 9.0 
</DataArray>
</Coordinates>
<PointData>
<DataArray Name="SOOT DENSITY" NumberOfComponents="1" type="UInt8" format="ascii">
0 0 0 1 1 1 2 1 0 0 0 0 0 0 0 0 0 0 0 0 0 0 0 0 0 0 0 0 0 0 0 0 0 0 0 0 0 0 0 0 0 0 0 0 0 0 0 0 0 0 0 0 0 0 0 0 0 0 0 0 0 0 0 0 0 0 0 0 0 0 0 0 0 0 0 0 0 0 0 0 0 0 0 0 0 0 0 0 0 0 0 0 0 0 0 0 0 0 0 0 0 0 0 0 0 0 0 0 0 0 0 0 0 0 0 0 0 0 0 0 0 0 0 0 0 0 0 0 0 0 0 0 0 0 0 0 0 0 0 0 0 0 0 0 0 0 0 0 0 0 0 0 0 0 0 0 0 0 0 0 0 0 0 0 0 0 0 0 0 0 0 0 0 0 0 0 0 0 0 0 0 0 0 0 0 0 0 0 0 0 0 0 0 0 0 0 0 0 0 0 0 0 0 0 0 0 0 0 0 0 0 0 0 0 0 0 0 0 0 0 0 0 0 0 0 0 0 0 0 0 0 0 0 0 0 0 0 0 0 0 0 0 0 0 0 0 0 0 0 0 0 0 0 0 0 0 0 0 0 0 0 0 0 0 0 0 0 0 0 0 0 0 0 0 0 0 0 0 0 0 0 0 0 0 0 0 0 0 0 0 0 0 0 0 0 0 0 0 0 0 0 0 0 0 0 0 0 0 0 0 0 0 0 0 0 0 0 0 0 0 0 0 0 0 0 0 0 0 0 0 0 0 0 0 0 0 0 0 0 0 0 0 0 0 0 0 0 0 0 0 0 0 0 0 0 0 0 0 0 0 0 0 0 0 0 0 0 0 0 0 0 0 0 0 0 0 0 0 0 0 0 0 0 0 0 0 0 0 0 0 0 0 0 0 0 0 0 0 0 0 0 0 0 0 0 0 0 0 0 0 0 0 0 0 0 0 0 0 0 0 0 0 0 0 0 0 0 0 0 0 0 0 0 0 0 0 0 0 0 0 0 0 0 0 0 0 0 0 0 0 0 0 0 0 0 0 0 0 0 0 0 0 0 0 0 0 0 0 0 0 0 0 0 0 0 0 0 0 0 0 0 0 0 0 0 0 0 0 0 0 0 0 0 0 0 0 0 0 0 0 0 0 0 0 0 0 0 0 0 0 0 0 0 0 0 0 0 0 0 0 0 0 0 0 0 0 0 0 0 0 0 0 0 0 0 0 0 0 0 0 0 0 0 0 0 0 0 0 0 0 0 0 0 0 0 0 0 0 0 0 0 0 0 0 0 0 0 0 0 0 0 0 0 0 0 0 0 0 0 0 0 0 0 0 0 0 0 0 0 0 0 0 0 0 0 0 0 0 0 0 0 0 0 0 0 0 0 0 0 0 0 0 0 0 0 0 0 0 0 0 0 0 0 0 0 0 0 0 0 0 0 0 0 0 0 0 0 0 0 0 0 0 0 0 0 0 0 0 0 0 0 0 0 0 0 0 0 0 0 0 0 0 0 0 0 0 0 0 0 0 0 0 0 0 0 0 0 0 2 13 16 10 9 5 1 0 0 0 0 0 0 0 0 0 0 0 0 0 0 0 0 0 0 0 0 0 1 1 1 0 0 0 0 0 0 0 0 0 0 0 0 0 0 0 0 0 0 0 0 0 0 0 0 0 0 0 0 0 0 0 0 0 0 0 0 0 0 0 0 0 0 0 0 0 0 0 0 0 0 0 0 0 0 0 0 0 0 0 0 0 0 0 0 0 0 0 0 0 0 0 0 0 0 0 0 0 0 0 0 0 0 0 0 0 0 0 0 0 0 0 0 0 0 0 0 0 0 0 0 0 0 0 0 0 0 0 0 0 0 0 0 0 0 0 0 0 0 0 0 0 0 0 0 0 0 0 0 0 0 0 0 0 0 0 0 0 0 0 0 0 0 0 0 0 0 0 0 0 0 0 0 0 0 0 0 0 0 0 0 0 0 0 0 0 0 0 0 0 0 0 0 0 0 0 0 0 0 0 0 0 0 0 0 0 0 0 0 0 0 0 0 0 0 0 0 0 0 0 0 0 0 0 0 0 0 0 0 0 0 0 0 0 0 0 0 0 0 0 0 0 0 0 0 0 0 0 0 0 0 0 0 0 0 0 0 0 0 0 0 0 0 0 0 0 0 0 0 0 0 0 0 0 0 0 0 0 0 0 0 0 0 0 0 0 0 0 0 0 0 0 0 0 0 0 0 0 0 0 0 0 0 0 0 0 0 0 0 0 0 0 0 0 0 0 0 0 0 0 0 0 0 0 0 0 0 0 0 0 0 0 0 0 0 0 0 0 0 0 0 0 0 0 0 0 0 0 0 0 0 0 0 0 0 0 0 0 0 0 0 0 0 0 0 0 0 0 0 0 0 0 0 0 0 0 0 0 0 0 0 0 0 0 0 0 0 0 0 0 0 0 0 0 0 0 0 0 0 0 0 0 0 0 0 0 0 0 0 0 0 0 0 0 0 0 0 0 0 0 0 0 0 0 0 0 0 0 0 0 0 0 0 0 0 0 0 0 0 0 0 0 0 0 0 0 0 0 0 0 0 0 0 0 0 0 0 0 0 0 0 0 0 0 0 0 0 0 0 0 0 0 0 0 0 0 0 0 0 0 0 0 0 0 0 0 0 0 0 0 0 0 0 0 0 0 0 0 0 0 0 0 0 0 0 0 0 0 0 0 0 0 0 0 0 0 0 0 0 0 0 0 0 0 0 0 0 0 0 0 0 0 0 0 0 0 0 0 0 0 0 0 0 0 0 0 0 0 0 0 0 0 0 0 0 0 0 0 0 0 0 0 0 0 0 0 0 0 0 0 0 0 0 0 0 0 0 0 0 0 0 0 0 0 0 0 0 0 0 0 0 0 0 0 0 0 0 0 0 0 0 0 0 0 0 0 0 0 0 0 0 0 0 0 0 0 0 0 0 0 0 0 0 0 0 0 0 0 0 0 0 0 0 0 0 0 0 0 0 0 0 0 0 0 0 0 0 0 0 0 0 0 0 0 0 0 0 0 0 0 0 0 0 0 0 0 5 36 47 28 19 10 2 0 0 0 0 0 0 0 0 0 0 0 0 0 0 0 0 0 0 0 0 1 2 2 2 1 0 0 0 0 0 0 0 0 0 0 0 0 0 0 0 0 0 0 0 0 0 0 0 0 0 0 0 0 0 0 0 0 0 0 0 0 0 0 0 0 0 0 0 0 0 0 0 0 0 0 0 0 0 0 0 0 0 0 0 0 0 0 0 0 0 0 0 0 0 0 0 0 0 0 0 0 0 0 0 0 0 0 0 0 0 0 0 0 0 0 0 0 0 0 0 0 0 0 0 0 0 0 0 0 0 0 0 0 0 0 0 0 0 0 0 0 0 0 0 0 0 0 0 0 0 0 0 0 0 0 0 0 0 0 0 0 0 0 0 0 0 0 0 0 0 0 0 0 0 0 0 0 0 0 0 0 0 0 0 0 0 0 0 0 0 0 0 0 0 0 0 0 0 0 0 0 0 0 0 0 0 0 0 0 0 0 0 0 0 0 0 0 0 0 0 0 0 0 0 0 0 0 0 0 0 0 0 0 0 0 0 0 0 0 0 0 0 0 0 0 0 0 0 0 0 0 0 0 0 0 0 0 0 0 0 0 0 0 0 0 0 0 0 0 0 0 0 0 0 0 0 0 0 0 0 0 0 0 0 0 0 0 0 0 0 0 0 0 0 0 0 0 0 0 0 0 0 0 0 0 0 0 0 0 0 0 0 0 0 0 0 0 0 0 0 0 0 0 0 0 0 0 0 0 0 0 0 0 0 0 0 0 0 0 0 0 0 0 0 0 0 0 0 0 0 0 0 0 0 0 0 0 0 0 0 0 0 0 0 0 0 0 0 0 0 0 0 0 0 0 0 0 0 0 0 0 0 0 0 0 0 0 0 0 0 0 0 0 0 0 0 0 0 0 0 0 0 0 0 0 0 0 0 0 0 0 0 0 0 0 0 0 0 0 0 0 0 0 0 0 0 0 0 0 0 0 0 0 0 0 0 0 0 0 0 0 0 0 0 0 0 0 0 0 0 0 0 0 0 0 0 0 0 0 0 0 0 0 0 0 0 0 0 0 0 0 0 0 0 0 0 0 0 0 0 0 0 0 0 0 0 0 0 0 0 0 0 0 0 0 0 0 0 0 0 0 0 0 0 0 0 0 0 0 0 0 0 0 0 0 0 0 0 0 0 0 0 0 0 0 0 0 0 0 0 0 0 0 0 0 0 0 0 0 0 0 0 0 0 0 0 0 0 0 0 0 0 0 0 0 0 0 0 0 0 0 0 0 0 0 0 0 0 0 0 0 0 0 0 0 0 0 0 0 0 0 0 0 0 0 0 0 0 0 0 0 0 0 0 0 0 0 0 0 0 0 0 0 0 0 0 0 0 0 0 0 0 0 0 0 0 0 0 0 0 0 0 0 0 0 0 0 0 0 0 0 0 0 0 0 0 0 0 0 0 0 0 0 0 0 0 0 0 0 0 0 0 0 0 0 0 0 0 0 0 0 0 0 0 0 0 0 0 0 6 50 68 44 32 26 14 1 0 0 0 0 0 0 0 0 0 0 0 0 0 0 0 0 0 0 0 3 5 4 4 2 1 0 0 0 0 0 0 0 0 0 0 0 0 0 0 0 0 0 0 0 0 0 0 0 0 0 0 0 0 0 0 0 0 0 0 0 0 0 0 0 0 0 0 0 0 0 0 0 0 0 0 0 0 0 0 0 0 0 0 0 0 0 0 0 0 0 0 0 0 0 0 0 0 0 0 0 0 0 0 0 0 0 0 0 0 0 0 0 0 0 0 0 0 0 0 0 0 0 0 0 0 0 0 0 0 0 0 0 0 0 0 0 0 0 0 0 0 0 0 0 0 0 0 0 0 0 0 0 0 0 0 0 0 0 0 0 0 0 0 0 0 0 0 0 0 0 0 0 0 0 0 0 0 0 0 0 0 0 0 0 0 0 0 0 0 0 0 0 0 0 0 0 0 0 0 0 0 0 0 0 0 0 0 0 0 0 0 0 0 0 0 0 0 0 0 0 0 0 0 0 0 0 0 0 0 0 0 0 0 0 0 0 0 0 0 0 0 0 0 0 0 0 0 0 0 0 0 0 0 0 0 0 0 0 0 0 0 0 0 0 0 0 0 0 0 0 0 0 0 0 0 0 0 0 0 0 0 0 0 0 0 0 0 0 0 0 0 0 0 0 0 0 0 0 0 0 0 0 0 0 0 0 0 0 0 0 0 0 0 0 0 0 0 0 0 0 0 0 0 0 0 0 0 0 0 0 0 0 0 0 0 0 0 0 0 0 0 0 0 0 0 0 0 0 0 0 0 0 0 0 0 0 0 0 0 0 0 0 0 0 0 0 0 0 0 0 0 0 0 0 0 0 0 0 0 0 0 0 0 0 0 0 0 0 0 0 0 0 0 0 0 0 0 0 0 0 0 0 0 0 0 0 0 0 0 0 0 0 0 0 0 0 0 0 0 0 0 0 0 0 0 0 0 0 0 0 0 0 0 0 0 0 0 0 0 0 0 0 0 0 0 0 0 0 0 0 0 0 0 0 0 0 0 0 0 0 0 0 0 0 0 0 0 0 0 0 0 0 0 0 0 0 0 0 0 0 0 0 0 0 0 0 0 0 0 0 0 0 0 0 0 0 0 0 0 0 0 0 0 0 0 0 0 0 0 0 0 0 0 0 0 0 0 0 0 0 0 0 0 0 0 0 0 0 0 0 0 0 0 0 0 0 0 0 0 0 0 0 0 0 0 0 0 0 0 0 0 0 0 0 0 0 0 0 0 0 0 0 0 0 0 0 0 0 0 0 0 0 0 0 0 0 0 0 0 0 0 0 0 0 0 0 0 0 0 0 0 0 0 0 0 0 0 0 0 0 0 0 0 0 0 0 0 0 0 0 0 0 0 0 0 0 0 0 0 0 0 0 0 0 0 0 0 0 0 0 0 0 0 0 0 0 0 0 0 0 0 0 0 0 0 0 0 0 0 0 0 0 0 0 0 0 0 0 0 0 0 0 0 0 0 0 0 3 13 69 84 51 52 67 44 3 0 0 0 0 0 0 0 0 0 0 0 0 0 0 0 0 0 0 1 6 9 6 8 7 2 0 0 0 0 0 0 0 0 0 0 0 0 0 0 0 0 0 0 0 0 0 0 0 0 0 0 0 0 0 0 0 0 0 0 0 0 0 0 0 0 0 0 0 0 0 0 0 0 0 0 0 0 0 0 0 0 0 0 0 0 0 0 0 0 0 0 0 0 0 0 0 0 0 0 0 0 0 0 0 0 0 0 0 0 0 0 0 0 0 0 0 0 0 0 0 0 0 0 0 0 0 0 0 0 0 0 0 0 0 0 0 0 0 0 0 0 0 0 0 0 0 0 0 0 0 0 0 0 0 0 0 0 0 0 0 0 0 0 0 0 0 0 0 0 0 0 0 0 0 0 0 0 0 0 0 0 0 0 0 0 0 0 0 0 0 0 0 0 0 0 0 0 0 0 0 0 0 0 0 0 0 0 0 0 0 0 0 0 0 0 0 0 0 0 0 0 0 0 0 0 0 0 0 0 0 0 0 0 0 0 0 0 0 0 0 0 0 0 0 0 0 0 0 0 0 0 0 0 0 0 0 0 0 0 0 0 0 0 0 0 0 0 0 0 0 0 0 0 0 0 0 0 0 0 0 0 0 0 0 0 0 0 0 0 0 0 0 0 0 0 0 0 0 0 0 0 0 0 0 0 0 0 0 0 0 0 0 0 0 0 0 0 0 0 0 0 0 0 0 0 0 0 0 0 0 0 0 0 0 0 0 0 0 0 0 0 0 0 0 0 0 0 0 0 0 0 0 0 0 0 0 0 0 0 0 0 0 0 0 0 0 0 0 0 0 0 0 0 0 0 0 0 0 0 0 0 0 0 0 0 0 0 0 0 0 0 0 0 0 0 0 0 0 0 0 0 0 0 0 0 0 0 0 0 0 0 0 0 0 0 0 0 0 0 0 0 0 0 0 0 0 0 0 0 0 0 0 0 0 0 0 0 0 0 0 0 0 0 0 0 0 0 0 0 0 0 0 0 0 0 0 0 0 0 0 0 0 0 0 0 0 0 0 0 0 0 0 0 0 0 0 0 0 0 0 0 0 0 0 0 0 0 0 0 0 0 0 0 0 0 0 0 0 0 0 0 0 0 0 0 0 0 0 0 0 0 0 0 0 0 0 0 0 0 0 0 0 0 0 0 0 0 0 0 0 0 0 0 0 0 0 0 0 0 0 0 0 0 0 0 0 0 0 0 0 0 0 0 0 0 0 0 0 0 0 0 0 0 0 0 0 0 0 0 0 0 0 0 0 0 0 0 0 0 0 0 0 0 0 0 0 0 0 0 0 0 0 0 0 0 0 0 0 0 0 0 0 0 0 0 0 0 0 0 0 0 0 0 0 0 0 0 0 0 0 0 0 0 0 0 0 0 0 0 0 0 0 0 0 0 0 0 0 0 0 0 0 0 0 0 0 0 0 0 0 0 0 0 0 0 0 0 0 0 0 0 0 0 0 0 0 1 7 27 86 93 57 81 117 81 7 0 0 0 0 0 0 0 0 0 0 0 0 0 0 0 0 0 1 2 8 10 8 15 15 4 0 0 0 0 0 0 0 0 0 0 0 0 0 0 0 0 0 0 0 0 0 0 0 1 1 0 0 0 0 0 0 0 0 0 0 0 0 0 0 0 0 0 0 0 0 0 0 0 0 0 0 0 0 0 0 0 0 0 0 0 0 0 0 0 0 0 0 0 0 0 0 0 0 0 0 0 0 0 0 0 0 0 0 0 0 0 0 0 0 0 0 0 0 0 0 0 0 0 0 0 0 0 0 0 0 0 0 0 0 0 0 0 0 0 0 0 0 0 0 0 0 0 0 0 0 0 0 0 0 0 0 0 0 0 0 0 0 0 0 0 0 0 0 0 0 0 0 0 0 0 0 0 0 0 0 0 0 0 0 0 0 0 0 0 0 0 0 0 0 0 0 0 0 0 0 0 0 0 0 0 0 0 0 0 0 0 0 0 0 0 0 0 0 0 0 0 0 0 0 0 0 0 0 0 0 0 0 0 0 0 0 0 0 0 0 0 0 0 0 0 0 0 0 0 0 0 0 0 0 0 0 0 0 0 0 0 0 0 0 0 0 0 0 0 0 0 0 0 0 0 0 0 0 0 0 0 0 0 0 0 0 0 0 0 0 0 0 0 0 0 0 0 0 0 0 0 0 0 0 0 0 0 0 0 0 0 0 0 0 0 0 0 0 0 0 0 0 0 0 0 0 0 0 0 0 0 0 0 0 0 0 0 0 0 0 0 0 0 0 0 0 0 0 0 0 0 0 0 0 0 0 0 0 0 0 0 0 0 0 0 0 0 0 0 0 0 0 0 0 0 0 0 0 0 0 0 0 0 0 0 0 0 0 0 0 0 0 0 0 0 0 0 0 0 0 0 0 0 0 0 0 0 0 0 0 0 0 0 0 0 0 0 0 0 0 0 0 0 0 0 0 0 0 0 0 0 0 0 0 0 0 0 0 0 0 0 0 0 0 0 0 0 0 0 0 0 0 0 0 0 0 0 0 0 0 0 0 0 0 0 0 0 0 0 0 0 0 0 0 0 0 0 0 0 0 0 0 0 0 0 0 0 0 0 0 0 0 0 0 0 0 0 0 0 0 0 0 0 0 0 0 0 0 0 0 0 0 0 0 0 0 0 0 0 0 0 0 0 0 0 0 0 0 0 0 0 0 0 0 0 0 0 0 0 0 0 0 0 0 0 0 0 0 0 0 0 0 0 0 0 0 0 0 0 0 0 0 0 0 0 0 0 0 0 0 0 0 0 0 0 0 0 0 0 0 0 0 0 0 0 0 0 0 0 0 0 0 0 0 0 0 0 0 0 0 0 0 0 0 0 0 0 0 0 0 0 0 0 0 0 0 0 0 0 0 0 0 0 0 0 0 0 0 0 0 0 0 0 0 0 0 0 0 0 0 0 0 0 0 0 0 0 0 0 0 0 0 0 0 0 0 0 0 0 0 0 0 0 0 0 0 4 12 28 70 73 62 110 140 90 7 0 0 0 0 0 0 0 0 0 0 0 0 0 0 0 0 2 3 4 7 7 8 19 17 4 0 0 0 0 0 0 0 0 0 0 0 0 0 0 0 0 0 0 0 1 0 0 0 1 1 0 0 0 0 0 0 0 0 0 0 0 0 0 0 0 0 0 0 0 0 0 0 0 0 0 0 0 0 0 0 0 0 0 0 0 0 0 0 0 0 0 0 0 0 0 0 0 0 0 0 0 0 0 0 0 0 0 0 0 0 0 0 0 0 0 0 0 0 0 0 0 0 0 0 0 0 0 0 0 0 0 0 0 0 0 0 0 0 0 0 0 0 0 0 0 0 0 0 0 0 0 0 0 0 0 0 0 0 0 0 0 0 0 0 0 0 0 0 0 0 0 0 0 0 0 0 0 0 0 0 0 0 0 0 0 0 0 0 0 0 0 0 0 0 0 0 0 0 0 0 0 0 0 0 0 0 0 0 0 0 0 0 0 0 0 0 0 0 0 0 0 0 0 0 0 0 0 0 0 0 0 0 0 0 0 0 0 0 0 0 0 0 0 0 0 0 0 0 0 0 0 0 0 0 0 0 0 0 0 0 0 0 0 0 0 0 0 0 0 0 0 0 0 0 0 0 0 0 0 0 0 0 0 0 0 0 0 0 0 0 0 0 0 0 0 0 0 0 0 0 0 0 0 0 0 0 0 0 0 0 0 0 0 0 0 0 0 0 0 0 0 0 0 0 0 0 0 0 0 0 0 0 0 0 0 0 0 0 0 0 0 0 0 0 0 0 0 0 0 0 0 0 0 0 0 0 0 0 0 0 0 0 0 0 0 0 0 0 0 0 0 0 0 0 0 0 0 0 0 0 0 0 0 0 0 0 0 0 0 0 0 0 0 0 0 0 0 0 0 0 0 0 0 0 0 0 0 0 0 0 0 0 0 0 0 0 0 0 0 0 0 0 0 0 0 0 0 0 0 0 0 0 0 0 0 0 0 0 0 0 0 0 0 0 0 0 0 0 0 0 0 0 0 0 0 0 0 0 0 0 0 0 0 0 0 0 0 0 0 0 0 0 0 0 0 0 0 0 0 0 0 0 0 0 0 0 0 0 0 0 0 0 0 0 0 0 0 0 0 0 0 0 0 0 0 0 0 0 0 0 0 0 0 0 0 0 0 0 0 0 0 0 0 0 0 0 0 0 0 0 0 0 0 0 0 0 0 0 0 0 0 0 0 0 0 0 0 0 0 0 0 0 0 0 0 0 0 0 0 0 0 0 0 0 0 0 0 0 0 0 0 0 0 0 0 0 0 0 0 0 0 0 0 0 0 0 0 0 0 0 0 0 0 0 0 0 0 0 0 0 0 0 0 0 0 0 0 0 0 0 0 0 0 0 0 0 0 0 0 0 0 0 0 0 0 0 0 0 0 0 0 0 0 0 0 0 0 0 0 0 0 0 0 0 0 0 0 0 0 0 0 0 0 0 0 0 0 0 0 0 0 0 0 0 0 0 15 30 34 52 51 58 119 134 70 5 0 0 0 0 0 0 0 0 0 0 0 0 0 0 0 0 8 17 16 11 7 7 15 13 3 0 0 0 0 0 0 0 0 0 0 0 0 0 0 0 0 0 1 3 4 2 1 0 1 1 0 0 0 0 0 0 0 0 0 0 0 0 0 0 0 0 0 0 0 1 1 0 0 0 0 0 0 0 0 0 0 0 0 0 0 0 0 0 0 0 0 0 0 0 0 0 0 0 0 0 0 0 0 0 0 0 0 0 0 0 0 0 0 0 0 0 0 0 0 0 0 0 0 0 0 0 0 0 0 0 0 0 0 0 0 0 0 0 0 0 0 0 0 0 0 0 0 0 0 0 0 0 0 0 0 0 0 0 0 0 0 0 0 0 0 0 0 0 0 0 0 0 0 0 0 0 0 0 0 0 0 0 0 0 0 0 0 0 0 0 0 0 0 0 0 0 0 0 0 0 0 0 0 0 0 0 0 0 0 0 0 0 0 0 0 0 0 0 0 0 0 0 0 0 0 0 0 0 0 0 0 0 0 0 0 0 0 0 0 0 0 0 0 0 0 0 0 0 0 0 0 0 0 0 0 0 0 0 0 0 0 0 0 0 0 0 0 0 0 0 0 0 0 0 0 0 0 0 0 0 0 0 0 0 0 0 0 0 0 0 0 0 0 0 0 0 0 0 0 0 0 0 0 0 0 0 0 0 0 0 0 0 0 0 0 0 0 0 0 0 0 0 0 0 0 0 0 0 0 0 0 0 0 0 0 0 0 0 0 0 0 0 0 0 0 0 0 0 0 0 0 0 0 0 0 0 0 0 0 0 0 0 0 0 0 0 0 0 0 0 0 0 0 0 0 0 0 0 0 0 0 0 0 0 0 0 0 0 0 0 0 0 0 0 0 0 0 0 0 0 0 0 0 0 0 0 0 0 0 0 0 0 0 0 0 0 0 0 0 0 0 0 0 0 0 0 0 0 0 0 0 0 0 0 0 0 0 0 0 0 0 0 0 0 0 0 0 0 0 0 0 0 0 0 0 0 0 0 0 0 0 0 0 0 0 0 0 0 0 0 0 0 0 0 0 0 0 0 0 0 0 0 0 0 0 0 0 0 0 0 0 0 0 0 0 0 0 0 0 0 0 0 0 0 0 0 0 0 0 0 0 0 0 0 0 0 0 0 0 0 0 0 0 0 0 0 0 0 0 0 0 0 0 0 0 0 0 0 0 0 0 0 0 0 0 0 0 0 0 0 0 0 0 0 0 0 0 0 0 0 0 0 0 0 0 0 0 0 0 0 0 0 0 0 0 0 0 0 0 0 0 0 0 0 0 0 0 0 0 0 0 0 0 0 0 0 0 0 0 0 0 0 0 0 0 0 0 0 0 0 0 0 0 0 0 0 0 0 0 0 0 0 0 0 0 0 0 0 0 0 0 0 0 0 0 0 0 0 0 0 0 0 0 0 0 0 0 0 0 0 0 0 0 0 0 0 0 0 0 0 0 0 0 0 0 0 31 61 69 62 39 38 92 102 45 7 1 0 0 0 0 0 0 0 0 0 0 0 0 0 0 0 14 41 54 33 8 4 8 8 3 1 0 0 0 0 0 0 0 0 0 0 0 0 0 0 0 0 2 17 25 13 2 0 0 0 0 0 0 0 0 0 0 0 0 0 0 0 0 0 0 0 0 0 0 4 5 1 0 0 0 0 0 0 0 0 0 0 0 0 0 0 0 0 0 0 0 0 0 0 0 0 0 0 0 0 0 0 0 0 0 0 0 0 0 0 0 0 0 0 0 0 0 0 0 0 0 0 0 0 0 0 0 0 0 0 0 0 0 0 0 0 0 0 0 0 0 0 0 0 0 0 0 0 0 0 0 0 0 0 0 0 0 0 0 0 0 0 0 0 0 0 0 0 0 0 0 0 0 0 0 0 0 0 0 0 0 0 0 0 0 0 0 0 0 0 0 0 0 0 0 0 0 0 0 0 0 0 0 0 0 0 0 0 0 0 0 0 0 0 0 0 0 0 0 0 0 0 0 0 0 0 0 0 0 0 0 0 0 0 0 0 0 0 0 0 0 0 0 0 0 0 0 0 0 0 0 0 0 0 0 0 0 0 0 0 0 0 0 0 0 0 0 0 0 0 0 0 0 0 0 0 0 0 0 0 0 0 0 0 0 0 0 0 0 0 0 0 0 0 0 0 0 0 0 0 0 0 0 0 0 0 0 0 0 0 0 0 0 0 0 0 0 0 0 0 0 0 0 0 0 0 0 0 0 0 0 0 0 0 0 0 0 0 0 0 0 0 0 0 0 0 0 0 0 0 0 0 0 0 0 0 0 0 0 0 0 0 0 0 0 0 0 0 0 0 0 0 0 0 0 0 0 0 0 0 0 0 0 0 0 0 0 0 0 0 0 0 0 0 0 0 0 0 0 0 0 0 0 0 0 0 0 0 0 0 0 0 0 0 0 0 0 0 0 0 0 0 0 0 0 0 0 0 0 0 0 0 0 0 0 0 0 0 0 0 0 0 0 0 0 0 0 0 0 0 0 0 0 0 0 0 0 0 0 0 0 0 0 0 0 0 0 0 0 0 0 0 0 0 0 0 0 0 0 0 0 0 0 0 0 0 0 0 0 0 0 0 0 0 0 0 0 0 0 0 0 0 0 0 0 0 0 0 0 0 0 0 0 0 0 0 0 0 0 0 0 0 0 0 0 0 0 0 0 0 0 0 0 0 0 0 0 0 0 0 0 0 0 0 0 0 0 0 0 0 0 0 0 0 0 0 0 0 0 0 0 0 0 0 0 0 0 0 0 0 0 0 0 0 0 0 0 0 0 0 0 0 0 0 0 0 0 0 0 0 0 0 0 0 0 0 0 0 0 0 0 0 0 0 0 0 0 0 0 0 0 0 0 0 0 0 0 0 0 0 0 0 0 0 0 0 0 0 0 0 0 0 0 0 0 0 0 0 0 0 0 0 0 0 0 0 0 0 0 0 0 0 0 0 0 0 0 0 0 0 0 0 0 0 0 0 44 91 98 68 32 23 44 53 35 19 5 0 0 0 0 0 0 0 0 0 0 0 0 0 0 0 18 63 81 43 8 3 4 6 5 2 0 0 0 0 0 0 0 0 0 0 0 0 0 0 0 0 5 32 41 18 3 0 0 0 0 0 0 0 0 0 0 0 0 0 0 1 1 0 0 0 0 0 1 5 6 2 0 0 0 0 0 0 0 0 0 0 0 0 0 0 0 1 1 1 0 0 0 0 0 0 0 0 0 0 0 0 0 0 0 0 0 0 0 0 0 0 1 1 1 1 0 0 0 0 0 0 0 0 0 0 0 0 0 0 0 0 0 0 0 0 0 0 0 1 1 1 0 0 0 0 0 0 0 0 0 0 0 0 0 0 0 0 0 0 0 0 0 0 0 0 1 0 0 0 0 0 0 0 0 0 0 0 0 0 0 0 0 0 0 0 0 0 0 0 0 0 0 0 0 0 0 0 0 0 0 0 0 0 0 0 0 0 0 0 0 0 0 0 0 0 0 0 0 0 0 0 0 0 0 0 0 0 0 0 0 0 0 0 0 0 0 0 0 0 0 0 0 0 0 0 0 0 0 0 0 0 0 0 0 0 0 0 0 0 0 0 0 0 0 0 0 0 0 0 0 0 0 0 0 0 0 0 0 0 0 0 0 0 0 0 0 0 0 0 0 0 0 0 0 0 0 0 0 0 0 0 0 0 0 0 0 0 0 0 0 0 0 0 0 0 0 0 0 0 0 0 0 0 0 0 0 0 0 0 0 0 0 0 0 0 0 0 0 0 0 0 0 0 0 0 0 0 0 0 0 0 0 0 0 0 0 0 0 0 0 0 0 0 0 0 0 0 0 0 0 0 0 0 0 0 0 0 0 0 0 0 0 0 0 0 0 0 0 0 0 0 0 0 0 0 0 0 0 0 0 0 0 0 0 0 0 0 0 0 1 1 1 0 0 0 0 0 0 0 0 0 0 0 0 0 0 0 0 0 0 0 0 0 0 0 1 1 1 0 0 0 0 0 0 0 0 0 0 0 0 0 0 0 0 0 0 0 0 0 0 1 1 1 1 0 0 0 0 0 0 0 0 0 0 0 0 0 0 0 0 0 0 0 0 0 0 1 1 1 1 0 0 0 0 1 1 0 0 0 0 0 0 0 0 0 0 0 0 0 0 0 0 0 0 0 0 0 0 0 1 1 1 1 1 0 0 0 0 0 0 0 0 0 0 0 0 0 0 0 0 0 0 0 0 1 0 1 1 1 1 1 0 0 0 0 0 0 0 0 0 0 0 0 0 0 0 0 0 0 0 0 0 0 0 1 1 0 0 0 0 0 0 0 0 0 0 0 0 0 0 0 0 0 0 0 0 0 0 0 0 0 0 0 0 0 0 0 0 0 0 0 0 0 0 0 0 0 0 0 0 0 0 0 0 0 0 0 0 0 0 0 0 0 0 0 0 0 0 0 0 0 0 0 0 0 0 0 0 0 0 0 0 0 0 0 0 0 0 0 0 0 0 0 0 0 75 126 114 69 39 28 29 40 40 25 10 3 1 1 1 1 1 1 1 1 1 1 1 1 1 0 52 89 83 34 9 5 6 8 7 3 2 1 1 0 1 1 1 1 1 2 1 1 1 1 1 0 24 42 37 12 4 3 3 2 1 1 0 0 0 0 1 1 1 1 2 2 2 2 2 2 1 0 8 6 4 2 3 3 2 2 1 1 0 0 0 0 0 1 1 1 1 2 3 3 2 2 1 0 6 2 1 1 3 3 3 3 2 1 0 0 0 0 0 1 1 1 1 2 3 3 3 2 1 0 5 1 0 1 3 4 4 3 1 1 0 0 0 0 1 1 1 1 1 2 2 3 3 2 1 0 4 1 0 1 3 4 3 2 1 1 0 0 0 0 1 1 1 1 1 1 2 2 2 2 1 0 2 1 0 1 3 3 3 2 1 1 1 1 1 1 1 0 0 0 1 1 1 2 2 1 1 0 1 1 1 1 3 4 3 2 1 1 1 1 1 1 0 0 0 0 0 1 1 1 1 1 1 0 2 2 1 2 3 4 3 1 1 1 1 1 1 1 0 0 0 0 0 1 1 1 1 1 1 0 5 4 2 2 3 3 2 1 1 1 1 1 1 0 0 0 0 0 0 0 1 1 1 1 1 0 5 5 4 2 3 3 2 1 1 1 1 1 1 0 0 0 0 0 0 1 1 1 1 1 1 0 4 6 5 3 3 3 2 1 1 1 1 1 1 0 0 0 0 0 1 1 1 1 1 1 1 0 4 5 6 5 4 3 2 1 1 2 1 1 1 0 0 0 1 1 1 1 1 2 2 1 1 0 3 4 5 6 5 4 2 2 2 2 2 1 1 1 1 1 1 1 1 1 1 2 2 1 1 0 2 3 4 5 5 4 4 3 2 2 2 1 1 1 1 1 1 1 1 1 1 2 2 1 1 0 2 2 3 4 4 4 4 3 3 3 2 2 2 2 2 2 1 1 1 1 1 1 1 1 0 0 2 3 3 4 4 4 4 3 3 3 3 3 3 2 3 2 2 1 1 1 1 1 1 1 0 0 4 5 4 5 5 5 4 3 3 3 3 4 4 4 4 4 3 2 1 1 1 1 1 1 0 0 5 6 5 5 5 5 4 3 2 3 3 5 6 6 7 6 5 3 2 1 1 1 1 1 0 0 5 6 5 4 4 4 4 3 3 3 3 5 8 9 10 9 7 5 3 2 1 1 1 1 1 0 3 5 4 4 4 4 4 4 4 4 4 5 7 9 10 9 8 5 3 2 1 1 1 1 1 0 2 4 4 3 3 3 3 4 4 5 5 5 6 7 6 7 6 5 3 2 2 1 1 1 1 0 1 2 2 2 2 2 2 3 3 3 4 4 5 4 3 3 4 3 2 2 2 1 1 1 1 0 1 1 1 1 1 1 1 1 1 1 2 2 2 2 1 1 1 1 1 1 1 1 1 0 0 0 0 0 0 0 0 0 0 0 0 0 0 0 0 0 0 0 0 0 0 0 0 0 0 0 0 0 143 180 163 130 82 47 54 63 56 40 36 34 21 7 6 10 12 12 10 7 5 5 6 7 8 6 141 159 141 95 42 25 29 25 16 15 18 18 10 5 6 10 14 14 11 7 5 5 6 7 7 8 83 100 81 44 28 27 25 19 10 7 8 7 5 4 6 11 15 15 10 6 6 6 7 7 8 8 42 30 22 21 31 29 23 21 11 6 5 5 4 4 7 11 15 13 9 6 7 7 8 9 8 8 57 21 10 16 29 28 25 24 12 7 6 4 3 4 7 12 14 12 8 6 7 9 10 10 9 8 71 25 8 14 27 31 31 25 12 7 7 5 3 5 11 16 15 10 6 6 7 9 11 11 9 8 60 21 7 14 25 33 33 22 11 8 8 6 6 10 17 19 14 8 5 5 6 8 10 10 10 9 36 15 6 12 23 34 33 21 11 8 9 9 11 16 19 15 8 5 4 5 6 8 9 10 10 10 22 13 6 11 22 39 39 22 12 9 9 11 14 16 13 8 4 3 3 4 6 8 9 10 11 12 24 17 9 12 23 42 42 22 11 9 10 11 13 11 7 4 3 3 4 4 6 8 8 9 12 13 32 25 15 13 21 37 35 17 9 9 11 13 12 9 5 3 3 3 4 5 6 7 8 9 11 12 36 33 22 16 22 29 22 10 8 10 13 15 14 10 6 4 4 4 5 6 7 8 9 10 11 12 36 39 31 23 26 26 14 7 9 11 13 15 14 10 6 5 5 6 6 7 8 10 11 11 11 11 37 44 39 33 31 25 13 8 12 15 14 12 11 8 6 6 6 7 8 8 9 11 12 11 10 8 33 46 44 40 34 24 15 11 17 21 17 11 8 7 6 7 8 9 9 10 11 12 12 10 9 5 23 37 41 40 34 22 17 15 23 29 21 12 8 7 8 10 11 11 11 11 12 12 12 9 8 4 15 21 28 32 28 20 18 18 28 33 23 13 9 8 10 14 15 13 12 12 12 12 11 9 8 5 14 14 19 25 24 20 20 20 31 34 23 14 11 10 13 17 18 16 13 12 12 12 11 9 7 5 18 19 21 28 28 25 22 21 27 28 20 15 14 14 18 22 24 22 17 13 13 12 11 9 7 4 22 25 24 30 32 26 22 20 19 18 16 18 21 22 28 34 34 31 22 17 15 13 12 9 7 4 21 27 27 28 29 23 21 21 19 17 17 22 30 34 42 48 46 39 28 20 17 14 12 10 7 4 18 27 29 29 27 22 25 29 27 24 22 26 35 43 48 51 49 42 30 22 17 14 12 9 6 4 16 27 33 27 23 21 26 34 34 31 31 34 40 45 43 44 43 37 29 22 17 13 11 8 6 4 13 22 28 19 16 17 22 28 29 31 35 38 42 42 36 35 34 29 24 18 14 10 9 7 5 3 9 10 13 12 11 16 20 18 18 24 30 31 29 25 21 22 20 16 14 10 8 7 6 4 3 1 4 2 3 4 5 13 19 13 13 20 25 23 17 12 10 13 11 8 7 6 5 3 3 2 2 2 183 216 206 185 147 113 115 121 117 90 74 66 44 26 32 50 60 58 45 28 19 19 22 26 24 11 182 195 183 151 103 93 112 112 91 62 50 46 35 27 34 53 70 71 56 32 20 19 22 25 23 14 131 135 122 98 89 104 125 120 83 46 38 41 38 32 36 56 75 77 59 33 22 21 24 26 24 18 109 75 73 88 107 114 124 119 78 44 44 48 42 33 37 59 77 78 57 31 23 24 27 29 26 22 134 74 67 90 116 115 112 111 74 50 50 48 35 28 39 62 77 73 50 27 23 27 31 31 27 22 148 79 67 94 118 115 109 105 74 55 56 46 29 30 47 66 72 61 39 24 24 29 32 32 27 23 143 78 68 104 122 119 115 105 76 59 62 49 36 45 61 66 59 42 26 21 25 30 33 32 28 26 131 79 61 94 118 127 126 110 79 63 62 51 47 62 67 57 39 23 18 21 27 31 32 32 30 24 120 81 48 63 100 134 139 118 85 65 57 49 59 71 62 40 23 16 16 23 28 31 32 32 32 22 109 83 43 41 80 132 145 118 81 60 51 54 70 71 51 29 18 16 18 23 27 29 31 33 35 29 95 80 44 39 74 125 138 102 62 53 56 69 78 67 43 26 20 20 21 24 27 29 32 35 36 29 82 72 49 50 85 122 118 72 43 49 63 78 80 63 42 28 25 26 27 27 28 32 36 38 37 31 83 73 60 70 99 113 87 46 38 47 61 73 71 56 42 33 31 33 32 30 31 36 40 40 39 38 98 90 78 87 99 91 62 40 42 50 59 64 59 49 39 35 35 36 34 33 36 41 43 41 40 37 103 109 99 95 88 69 52 44 57 69 69 62 51 42 37 36 38 37 36 37 40 44 44 41 40 35 93 110 111 100 79 60 55 58 81 98 92 73 53 42 40 43 44 41 39 42 44 46 45 43 41 35 73 87 103 97 73 61 64 72 96 112 104 82 57 45 45 49 49 44 42 45 46 47 47 44 39 33 63 67 82 84 73 72 77 84 106 119 107 82 58 46 45 50 51 48 46 47 47 48 47 43 35 28 62 63 70 79 86 85 80 90 114 119 97 71 55 47 48 53 57 57 52 49 49 49 47 42 34 26 57 65 73 88 99 87 68 80 101 98 74 59 57 56 61 67 69 66 59 55 54 54 48 41 32 25 53 67 76 88 92 75 59 64 73 69 59 59 65 70 78 83 81 75 67 64 61 57 49 41 32 25 52 67 74 78 77 69 67 67 63 65 66 65 72 79 86 90 87 80 74 72 66 57 47 38 31 25 55 71 78 71 66 68 74 78 75 78 79 78 82 88 89 90 88 84 80 77 67 54 45 37 30 25 58 72 77 64 58 64 74 76 77 81 84 85 88 92 88 88 87 84 81 75 62 48 41 35 29 25 56 62 66 62 59 66 71 62 61 70 76 76 75 76 71 74 74 70 67 58 47 37 34 30 25 20 40 53 56 58 58 66 68 51 48 60 69 56 50 59 45 52 62 57 54 44 35 28 27 24 21 13 213 236 231 223 215 207 198 190 187 163 134 113 94 83 89 103 114 123 122 107 79 56 54 62 61 38 216 222 216 208 201 199 201 195 180 149 121 105 93 87 92 107 121 132 132 117 86 56 50 58 58 47 191 190 181 183 192 200 206 197 169 130 111 107 102 98 101 115 129 139 138 119 84 55 51 57 57 50 176 159 156 174 194 203 206 193 153 118 113 117 115 110 110 123 137 145 139 112 74 53 53 58 58 54 177 149 150 170 195 203 201 186 146 121 123 124 117 110 111 124 138 144 132 97 63 53 55 59 59 55 181 148 149 172 195 199 194 182 150 132 132 124 106 96 101 113 128 132 114 79 56 55 58 61 60 57 181 148 153 181 198 195 189 181 158 145 139 119 93 87 93 100 108 108 88 64 55 58 61 63 63 60 179 151 153 180 195 196 191 184 168 156 142 115 94 94 94 90 86 78 65 56 58 61 64 67 67 61 175 151 146 157 177 196 197 189 175 161 142 116 107 107 96 82 72 63 56 55 60 63 66 70 72 62 167 145 131 126 146 188 199 189 173 159 141 126 125 117 95 78 69 64 57 57 60 63 68 75 77 72 153 136 112 107 129 177 194 180 161 154 146 140 137 119 94 79 72 67 62 60 61 65 71 78 81 75 141 124 102 105 135 174 183 160 145 147 148 147 138 116 95 84 78 75 68 64 64 68 74 82 86 80 138 117 103 118 148 171 164 139 133 137 142 144 133 113 98 90 87 83 75 69 69 73 79 86 90 89 148 126 113 130 153 159 146 128 125 127 132 134 125 111 99 94 92 87 79 76 77 82 87 92 94 92 157 144 134 139 146 143 132 124 126 130 132 130 119 108 100 98 96 90 84 84 87 92 95 96 96 93 157 156 156 149 139 132 127 128 137 146 145 136 120 109 104 104 102 95 90 93 97 100 101 100 96 90 151 154 162 154 135 131 132 136 147 156 155 142 124 113 111 112 109 103 98 100 102 103 102 99 89 78 149 147 153 150 137 139 143 148 159 166 161 145 128 120 120 122 119 113 107 105 103 103 101 93 77 65 150 144 144 146 146 149 149 158 173 177 164 145 133 130 131 131 128 122 114 107 103 100 95 84 70 61 143 141 143 152 157 153 143 153 171 173 158 143 137 138 139 137 132 124 115 107 102 98 89 78 68 61 129 134 144 155 157 145 131 139 153 155 148 140 138 140 141 138 131 120 113 109 104 98 88 78 68 61 116 129 141 149 149 136 127 135 136 141 141 131 130 132 134 131 122 113 111 111 107 97 86 77 66 58 116 128 137 140 137 128 127 137 131 132 131 120 119 120 123 121 116 113 114 115 108 95 84 74 63 54 119 127 129 126 121 117 126 134 125 119 116 111 113 116 117 117 117 117 118 116 106 91 80 70 59 52 119 123 122 118 114 115 124 123 112 107 106 106 108 111 111 113 115 114 113 108 97 85 76 66 56 50 95 120 119 118 116 116 121 114 102 100 102 94 94 106 96 101 111 110 108 100 89 79 72 63 53 36 171 201 194 187 185 181 167 153 147 129 105 87 75 69 69 72 79 91 98 92 68 43 39 44 46 33 182 186 180 177 178 174 168 157 144 123 99 84 74 70 71 74 81 93 103 100 74 43 35 41 43 41 158 161 152 157 169 171 169 155 132 107 90 83 79 78 80 83 87 98 107 102 71 40 34 39 42 41 136 134 128 140 162 171 168 148 114 92 87 88 90 90 90 91 95 104 110 95 60 36 35 39 43 42 125 118 118 132 156 169 167 144 108 92 94 96 97 94 89 89 96 106 106 82 48 35 35 40 43 42 125 114 116 130 153 164 161 142 112 102 102 98 88 78 73 75 88 100 93 64 40 36 37 41 44 44 124 114 119 137 155 157 150 140 123 116 106 90 71 59 56 60 75 84 72 50 38 38 39 43 46 46 120 113 124 141 154 152 144 140 134 127 111 86 65 55 53 55 62 64 53 41 39 40 43 47 50 49 117 110 123 129 137 147 145 143 140 133 115 90 72 62 56 56 57 53 45 39 40 42 46 51 54 53 115 102 110 107 109 137 145 142 140 134 118 97 84 72 61 58 57 53 45 41 42 44 48 54 58 58 111 96 91 88 91 123 140 138 135 132 120 105 92 77 65 61 59 54 47 43 43 46 50 57 62 61 107 93 80 79 89 115 131 128 127 126 120 108 94 78 68 65 62 57 50 45 45 47 51 59 65 65 104 88 77 81 97 118 124 117 117 117 114 107 95 80 72 69 67 61 53 49 49 50 54 62 68 68 105 87 78 88 106 119 117 109 106 104 104 101 93 82 75 73 71 65 58 55 55 57 61 68 72 71 110 94 89 97 108 114 108 102 99 96 97 96 91 84 79 77 74 68 62 62 63 67 70 73 73 71 114 106 105 106 106 106 101 98 97 97 97 95 89 84 81 80 77 72 68 69 71 74 75 75 71 67 117 113 114 111 103 103 100 100 100 100 100 96 91 87 87 86 84 80 75 75 76 76 76 73 64 56 121 116 115 112 103 104 105 107 110 110 107 101 96 96 98 99 96 90 83 79 77 76 73 67 54 45 124 117 113 112 106 109 113 116 122 124 118 109 105 108 110 110 105 97 88 81 75 72 66 57 47 42 121 114 111 114 112 113 113 117 126 131 126 117 113 115 116 113 107 98 88 78 72 66 59 51 46 43 106 105 111 118 117 111 105 112 121 126 124 116 113 113 113 110 101 91 82 74 68 63 56 52 46 43 91 99 111 118 117 105 96 109 112 115 113 103 101 101 102 97 88 78 74 71 67 62 56 52 45 40 88 96 105 111 109 95 91 106 99 97 94 83 82 82 83 79 75 71 70 70 67 61 55 49 41 36 87 91 94 94 91 83 88 100 89 78 75 69 70 70 72 71 71 71 71 71 67 61 53 46 38 33 87 87 85 82 80 78 87 92 81 69 66 67 68 70 71 72 72 72 73 72 68 61 53 45 37 33 68 86 83 81 79 78 86 88 76 68 66 67 69 71 71 72 73 73 73 72 67 60 53 45 37 25 0 0 0 0 0 0 0 0 0 0 0 0 0 0 0 0 0 0 0 0 0 0 0 0 0 0 0 0 0 0 0 0 0 0 0 0 0 0 0 0 0 0 0 0 0 0 0 0 0 0 0 0 0 0 0 0 0 0 0 0 0 0 0 0 0 0 0 0 0 0 0 0 0 0 0 0 0 0 0 0 0 0 0 0 0 0 0 0 0 0 0 0 0 0 0 0 0 0 0 0 0 0 0 0 0 0 0 0 0 0 0 0 0 0 0 0 0 0 0 0 0 0 0 0 0 0 0 0 0 0 0 0 0 0 0 0 0 0 0 0 0 0 0 0 0 0 0 0 0 0 0 0 0 0 0 0 0 0 0 0 0 0 0 0 0 0 0 0 0 0 0 0 0 0 0 0 0 0 0 0 0 0 0 0 0 0 0 0 0 0 0 0 0 0 0 0 0 0 0 0 0 0 0 0 0 0 0 0 0 0 0 0 0 0 0 0 0 0 0 0 0 0 0 0 0 0 0 0 0 0 0 0 0 0 0 0 0 0 0 0 0 0 0 0 0 0 0 0 0 0 0 0 0 0 0 0 0 0 0 0 0 0 0 0 0 0 0 0 0 0 0 0 0 0 0 0 0 0 0 0 0 0 0 0 0 0 0 0 0 0 0 0 0 0 0 0 0 0 0 0 0 0 0 0 0 0 0 0 0 0 0 0 0 0 0 0 0 0 0 0 0 0 0 0 0 0 0 0 0 0 0 0 0 0 0 0 0 0 0 0 0 0 0 0 0 0 0 0 0 0 0 0 0 0 0 0 0 0 0 0 0 0 0 0 0 0 0 0 0 0 0 0 0 0 0 0 0 0 0 0 0 0 0 0 0 0 0 0 0 0 0 0 0 0 0 0 0 0 0 0 0 0 0 0 0 0 0 0 0 0 0 0 0 0 0 0 0 0 0 0 0 0 0 0 0 0 0 0 0 0 0 0 0 0 0 0 0 0 0 0 0 0 0 0 0 0 0 0 0 0 0 0 0 0 0 0 0 0 0 0 0 0 0 0 0 0 0 0 0 0 0 0 0 0 0 0 0 0 0 0 0 0 0 0 0 0 0 0 0 0 0 0 0 0 0 0 0 0 0 0 0 0 0 0 0 0 0 0 0 0 0 0 0 0 0 0 0 0 0 0 0 0 0 0 0 0 0 0 0 0 0 0 0 0 0 0 0 0 0 0 0 0 0 0 0 0 0 0 0 0 0 0 0 0 0 0 0 0 0 0 0 0 0 0 0 0 0 0 0 0 0 0 0 0 0 0 0 0 0 0 0 0 0 0 0 0 0 0 0 0 0 0 0 0 0 0 0 0 0 0 0 0 0 0 0 0 0 0 0 0 0 0 0 0 0 0 0 0 0 0 0 0 0 0 0 0 0 0 0 0 0 0 0 0 0 0 0 0 0 0 0 0 0 0 0 0 0 0 0 0 0 0 0 0 0 0 0 0 0 0 0 0 0 0 0 0 0 0 0 0 0 0 0 0 0 0 
</DataArray>
<DataArray Name="HRRPUV" NumberOfComponents="1" type="UInt8" format="ascii">