<?xml version="1.0"?>
<VTKFile type="ImageData" version="1.0" byte_order="LittleEndian" header_type="UInt64">
<ImageData WholeExtent="25 50 25 50 1 1"
 Origin="15.0000 15.0000 0.0000" Spacing="0.6000 0.6000 0.6000">
<Piece Extent="25 50 25 50 1 1">
<PointData>
<DataArray Name="TEMPERATURE" NumberOfComponents="1" type="Float32" format="ascii">
42.2 47.6 49.0 60.9 68.0 69.0 73.2 63.2 45.9 41.1 39.9 37.1 36.0 35.1 32.0 28.7 26.7 25.6 24.9 24.9 25.1 24.9 24.9 24.5 22.5 20.9 50.3 49.2 50.9 59.2 72.6 81.0 73.6 53.0 39.6 38.3 37.2 36.7 37.0 36.1 32.9 29.2 27.1 26.0 25.3 25.4 25.9 25.9 25.9 25.5 23.2 21.2 51.1 54.3 53.8 58.9 74.1 81.8 67.5 44.7 35.9 36.9 37.6 38.8 38.9 37.0 32.9 29.0 27.0 25.9 25.3 25.7 26.6 27.0 27.0 26.8 24.2 21.6 42.3 47.8 48.2 54.7 69.3 74.1 62.7 46.0 39.9 40.8 41.9 41.2 39.2 36.1 31.8 28.2 26.5 25.7 25.3 25.9 26.9 27.5 27.5 27.6 25.1 22.2 32.8 36.0 38.3 45.8 59.2 66.8 62.5 53.8 49.3 46.5 43.6 39.5 36.7 34.0 30.3 27.4 26.2 25.7 25.5 26.1 27.0 27.4 27.4 27.9 25.7 22.9 30.5 31.2 34.8 42.6 50.9 59.8 64.2 61.4 56.3 48.9 41.2 35.7 34.1 32.2 29.2 27.1 26.3 26.1 26.0 26.5 27.0 27.2 27.1 27.8 26.2 23.8 30.5 30.4 33.6 42.7 50.2 57.5 64.5 64.1 58.2 48.6 38.5 33.3 32.6 30.9 28.8 27.5 26.8 26.7 26.6 26.8 27.1 26.9 26.8 27.6 26.5 24.4 29.4 30.1 31.9 39.3 50.3 56.8 61.2 62.2 56.2 45.7 35.9 32.2 31.3 29.7 28.5 28.1 27.6 27.3 27.1 27.1 27.0 26.7 26.7 27.8 26.7 24.4 28.4 30.5 32.0 36.8 47.5 49.8 51.4 54.5 48.5 39.6 33.1 31.2 30.0 28.6 28.2 28.7 28.6 28.0 27.3 27.2 27.3 26.9 26.8 28.2 26.8 23.9 28.1 30.6 32.6 35.7 42.4 41.1 39.1 40.8 38.4 34.5 31.1 29.9 29.1 28.3 28.3 29.2 29.3 28.4 27.3 27.4 27.9 27.5 27.1 28.3 26.5 23.5 28.4 30.6 32.7 35.4 40.0 37.7 32.4 31.9 33.5 32.8 30.1 29.3 29.3 28.9 28.8 29.4 29.5 28.7 27.4 27.7 28.4 27.8 27.4 28.1 26.1 23.3 30.1 31.5 33.2 35.6 39.6 37.0 32.5 32.8 34.2 33.4 31.4 31.2 31.1 30.5 30.0 30.0 30.0 29.2 27.7 28.0 28.3 27.6 27.5 27.9 25.6 23.0 33.2 34.0 35.0 36.6 39.3 38.2 38.5 40.6 39.7 37.9 36.0 34.9 33.5 31.7 30.7 30.5 30.9 30.3 28.4 28.2 28.0 27.0 27.3 27.6 25.1 22.6 37.3 39.9 41.1 41.0 41.4 42.9 47.6 51.6 49.6 44.4 40.7 38.2 35.6 32.9 31.5 31.4 32.5 32.2 29.3 28.3 27.6 26.5 27.1 27.2 24.7 22.4 42.5 48.9 51.8 49.1 45.6 47.5 52.4 56.9 55.6 47.1 41.2 38.9 37.1 35.1 33.6 33.3 34.5 33.4 29.2 27.3 26.5 26.0 27.0 26.7 24.4 22.6 50.6 57.8 62.1 56.9 49.6 49.0 50.7 55.0 53.7 43.3 37.1 36.7 36.7 36.0 34.8 34.6 36.0 34.4 29.0 26.1 25.2 25.6 26.8 26.1 24.2 22.9 59.2 64.3 67.4 60.3 51.4 47.0 43.6 47.0 44.9 35.9 32.8 33.5 33.8 33.9 33.9 35.0 37.0 34.9 28.9 25.7 24.6 25.1 26.1 25.6 24.2 22.7 61.8 65.7 67.1 58.6 49.7 44.1 36.2 35.4 34.6 31.5 31.7 32.2 31.9 31.9 33.1 36.1 38.0 34.2 28.2 25.9 24.4 24.3 24.9 24.9 23.7 21.7 57.5 60.0 60.7 52.5 44.3 41.4 33.7 29.8 30.9 31.7 32.6 32.9 31.9 31.3 33.0 36.1 36.7 32.1 27.4 25.9 24.4 23.6 23.6 23.9 22.9 21.1 50.8 51.0 49.4 43.0 36.6 36.7 32.9 30.8 32.4 33.5 34.2 34.0 32.3 30.8 32.0 34.3 33.8 30.2 27.0 25.7 24.6 23.9 23.6 23.4 22.4 21.3 43.4 43.5 38.0 33.8 32.2 34.3 33.6 33.6 35.6 35.9 34.8 33.5 31.5 30.0 30.5 31.5 30.7 28.7 26.5 25.2 24.9 24.9 24.1 22.9 21.9 21.3 37.6 37.9 33.0 31.6 34.5 37.0 37.5 39.1 40.7 38.7 35.0 32.7 30.9 29.6 29.4 29.3 28.6 27.4 25.7 24.4 24.8 25.5 24.8 23.4 21.9 21.2 34.6 33.9 32.0 33.5 38.0 40.5 42.0 44.2 43.0 38.2 34.0 31.7 30.7 29.9 28.4 27.2 26.9 26.6 25.1 24.0 24.6 25.7 25.8 24.1 22.1 21.2 32.3 30.8 30.1 32.6 37.3 40.6 43.6 44.0 38.4 33.2 30.9 29.6 29.1 28.9 27.5 25.7 25.0 24.5 23.7 23.6 24.3 25.5 26.0 24.8 22.8 21.8 29.1 27.8 27.6 28.7 31.2 34.5 39.6 37.9 29.7 26.7 26.9 26.7 26.0 26.1 25.9 24.4 23.0 22.4 22.3 22.7 23.5 25.0 26.1 25.4 23.2 22.1 27.1 26.0 26.0 26.0 26.5 29.5 35.8 33.6 24.7 23.3 24.3 24.4 23.7 24.1 24.2 22.8 21.5 21.5 21.7 21.9 22.9 24.6 25.8 25.0 22.8 21.9 
</DataArray>
</PointData>
</Piece>
</ImageData>
</VTKFile>
