<?xml version="1.0"?>
<VTKFile type="ImageData" version="1.0" byte_order="LittleEndian" header_type="UInt64">
<ImageData WholeExtent="0 25 0 25 1 1"
 Origin="0.0000 0.0000 0.0000" Spacing="0.6000 0.6000 0.6000">
<Piece Extent="0 25 0 25 1 1">
<PointData>
<DataArray Name="TEMPERATURE" NumberOfComponents="1" type="Float32" format="ascii">
20.9 22.0 22.7 22.8 22.7 22.8 23.7 24.7 25.0 24.0 23.6 23.6 23.9 24.2 24.4 24.7 25.7 28.2 31.9 35.0 36.8 39.0 40.8 39.5 37.7 39.7 22.4 23.3 23.9 24.2 24.3 24.6 25.3 25.8 25.7 24.9 24.7 24.7 24.9 25.8 27.0 28.0 29.9 33.5 37.9 40.5 41.3 41.9 42.4 42.3 42.9 45.6 23.1 24.0 24.8 25.2 25.5 25.4 25.9 26.5 26.3 25.7 25.3 25.0 25.2 27.3 30.0 31.8 33.8 37.1 40.9 43.4 44.6 44.4 44.6 46.5 49.5 51.9 22.8 24.1 25.2 25.3 25.2 24.7 24.9 25.3 25.5 25.2 24.8 24.6 25.1 27.3 30.6 33.1 34.8 36.5 38.6 40.7 42.6 43.6 45.5 47.7 48.9 48.5 22.6 23.9 25.3 25.6 25.5 25.1 24.8 24.5 24.4 24.6 24.5 24.8 25.5 27.4 30.4 33.2 35.8 37.5 38.4 39.4 41.1 43.6 46.4 47.4 45.6 42.9 22.5 23.6 25.0 25.6 25.9 25.8 25.2 24.5 24.2 24.3 24.6 25.7 27.4 29.4 31.4 33.2 35.6 37.4 38.8 40.8 43.6 46.3 47.5 46.8 43.4 40.3 22.5 23.6 24.8 25.5 26.4 26.8 26.3 25.4 24.7 24.5 24.7 26.3 29.3 31.9 33.4 34.5 36.0 38.3 41.6 45.1 47.3 47.9 47.3 46.2 42.3 38.2 21.9 23.4 24.8 25.7 26.8 27.2 27.1 26.3 25.6 25.7 26.0 27.4 30.3 32.7 34.1 34.8 37.0 41.0 45.1 47.8 48.9 49.0 48.6 47.1 42.3 37.7 22.0 23.5 25.0 25.8 26.6 27.1 27.4 27.1 27.1 28.0 28.7 29.7 31.3 32.5 33.5 34.4 37.9 42.9 46.2 48.0 49.1 49.2 48.2 45.1 40.3 38.7 22.2 23.5 24.7 25.5 26.4 27.1 27.6 27.7 28.7 30.3 31.6 32.3 32.7 32.7 33.2 34.9 38.8 42.7 44.7 46.2 46.8 45.9 43.8 39.8 36.1 36.7 22.4 23.6 24.5 25.5 26.3 27.1 27.9 28.4 29.8 31.9 33.7 34.5 34.3 33.2 33.2 35.2 38.2 40.5 42.4 44.3 44.5 42.9 40.2 35.8 32.8 34.7 22.4 23.4 24.3 25.1 25.9 26.8 28.1 29.0 30.4 32.2 33.7 33.7 32.6 31.3 32.0 34.2 36.1 37.6 40.1 42.4 42.7 40.9 37.5 33.3 33.0 40.4 22.3 23.3 24.0 24.5 25.4 26.7 28.4 29.5 30.7 31.7 32.0 31.2 29.6 29.0 30.3 32.5 34.1 35.7 38.1 40.1 40.3 39.1 36.4 33.9 37.9 49.7 22.5 23.6 24.1 24.6 25.7 27.4 29.4 30.3 30.9 31.2 30.8 29.6 28.5 28.3 29.4 31.4 33.6 35.7 37.6 38.3 38.2 37.8 37.0 37.3 43.9 53.8 23.0 24.2 24.7 25.1 26.3 27.9 29.6 30.2 30.7 31.1 30.6 29.4 28.3 28.1 29.3 32.3 35.9 38.3 38.8 38.1 37.2 36.6 37.0 39.4 45.3 50.5 23.8 25.3 25.5 25.4 26.3 27.1 28.6 29.1 29.8 30.3 30.1 29.0 28.0 28.2 30.4 34.9 38.9 40.4 39.9 38.6 36.9 35.4 35.6 39.2 44.2 48.0 24.9 26.5 26.5 25.8 26.1 26.4 27.4 28.1 28.8 29.3 29.2 28.6 28.2 28.9 31.9 36.7 40.3 40.7 39.6 38.5 37.0 35.0 34.6 39.1 45.5 55.8 25.8 26.8 26.5 26.0 26.1 26.3 27.1 27.7 28.4 28.6 28.7 28.8 28.6 29.3 32.2 36.6 39.6 39.3 38.2 37.5 37.0 36.7 37.6 43.9 50.6 67.8 25.0 25.5 25.5 25.6 25.8 26.1 26.8 27.3 27.7 27.7 28.3 29.1 28.8 29.0 31.4 34.6 36.9 37.1 36.4 36.0 37.2 41.5 46.8 53.4 62.8 81.4 23.7 24.3 24.8 25.4 25.5 25.9 26.5 26.6 26.7 26.9 28.3 29.3 28.5 28.2 29.9 32.4 34.8 35.3 34.3 34.0 37.4 47.2 56.3 60.9 75.3 95.6 22.9 23.5 24.6 25.8 26.1 26.9 27.5 26.6 26.0 26.3 27.8 28.8 28.3 28.2 29.3 31.4 33.6 33.8 31.9 31.9 38.6 52.8 65.0 71.1 86.1 104.1 23.3 23.8 24.7 26.4 27.5 28.4 29.1 27.8 26.6 26.7 27.5 28.1 28.0 28.0 28.6 30.2 32.3 32.7 30.8 31.5 43.0 60.5 75.0 87.9 100.4 109.7 25.3 25.7 25.7 26.8 27.9 28.3 28.8 28.0 27.6 27.9 28.0 27.6 27.2 27.1 27.6 29.5 32.5 33.6 31.6 32.0 42.2 57.2 74.9 98.1 113.3 117.6 27.0 27.2 26.8 27.1 27.4 27.1 27.1 27.0 27.3 27.6 27.4 26.9 26.8 27.2 28.4 31.3 34.2 33.8 31.8 32.3 37.9 47.2 59.9 78.6 100.6 116.6 27.6 27.9 27.6 27.6 27.2 26.5 26.4 26.5 26.8 26.6 26.4 26.6 27.1 28.2 31.1 34.8 35.7 33.2 32.0 33.6 38.2 45.8 51.3 54.5 71.5 99.2 26.9 27.9 28.0 27.8 27.2 26.3 26.1 26.1 26.1 25.8 25.8 26.4 27.5 29.6 34.0 37.4 36.5 33.7 34.0 36.4 39.1 45.2 52.4 52.2 54.5 60.8 
</DataArray>
</PointData>
</Piece>
</ImageData>
</VTKFile>
