<?xml version="1.0"?>
<VTKFile type="RectilinearGrid" version="1.0" byte_order="LittleEndian" header_type="UInt64">
<RectilinearGrid WholeExtent="0 25 25 50 0 15">
<Piece Extent="0 25 25 50 0 15">
<Coordinates>
<DataArray type="Float64" Name="Array X-Axis" format="ascii" RangeMin="0.0" RangeMax="15.0">
0.0 0.6 1.2 1.8 2.4 3.0 3.6 4.2 4.8 5.4 6.0 6.6 7.2 7.8 8.4 9.0 9.6 10.2 10.8 11.4 12.0 12.6 13.2 13.8 14.4 15.0 
</DataArray>
<DataArray type="Float64" Name="Array Y-Axis" format="ascii" RangeMin="15.0" RangeMax="30.0">
15.0 15.6 16.2 16.8 17.4 18.0 18.6 19.2 19.8 20.4 21.0 21.6 22.2 22.8 23.4 24.0 24.6 25.2 25.8 26.4 27.0 27.6 28.2 28.8 29.4 30.0 
</DataArray>
<DataArray type="Float64" Name="Array Z-Axis" format="ascii" RangeMin="0.0" RangeMax="9.0">
0.0 0.6 1.2 1.8 2.4 3.0 3.6 4.2 4.8 5.4 6.0 6.6 7.2 7.8 8.4 9.0 
</DataArray>
</Coordinates>
<PointData>
<DataArray Name="SOOT DENSITY" NumberOfComponents="1" type="UInt8" format="ascii">
0 0 0 0 0 0 0 0 0 0 0 0 0 0 0 0 0 0 0 0 0 0 0 0 0 0 0 0 0 0 0 0 0 0 0 0 0 0 0 0 0 0 0 0 0 0 0 0 0 0 0 0 0 0 0 0 0 0 0 0 0 0 0 0 0 0 0 0 0 0 0 0 0 0 0 0 0 0 0 0 0 0 0 0 0 0 0 0 0 0 0 0 0 0 0 0 0 0 0 0 0 0 0 0 0 0 0 0 0 0 0 0 0 0 0 0 0 0 0 0 0 0 0 0 0 0 0 0 0 0 0 0 0 0 0 0 0 0 0 0 0 0 0 0 0 0 0 0 0 0 0 0 0 0 0 0 0 0 0 0 0 0 0 0 0 0 0 0 0 0 0 0 0 0 0 0 0 0 0 0 0 0 0 0 0 0 0 0 0 0 0 0 0 0 0 0 0 0 0 0 0 0 0 0 0 0 0 0 0 0 0 0 0 0 0 0 0 0 0 0 0 0 0 0 0 0 0 0 0 0 0 0 0 0 0 0 0 0 0 0 0 0 0 0 0 0 0 0 0 0 0 0 0 0 0 0 0 0 0 0 0 0 0 0 0 0 0 0 0 0 0 0 0 0 0 0 0 0 0 0 0 0 0 0 0 0 0 0 0 0 0 0 0 0 0 0 0 0 0 0 0 0 0 0 0 0 0 0 0 0 0 0 0 0 0 0 0 0 0 0 0 0 0 0 0 0 0 0 0 0 0 0 0 0 0 0 0 0 0 0 0 0 0 0 0 0 0 0 0 0 0 0 0 0 0 0 0 0 0 0 0 0 0 0 0 0 0 0 0 0 0 0 0 0 0 0 0 0 0 0 0 0 0 0 0 0 0 0 0 0 0 0 0 0 0 0 0 0 0 0 0 0 0 0 0 0 0 0 0 0 0 0 0 0 0 0 0 0 0 0 0 0 0 0 0 0 0 0 0 0 0 0 0 0 0 0 0 0 0 0 0 0 0 0 0 0 0 0 0 0 0 0 0 0 0 0 0 0 0 0 0 0 0 0 0 0 0 0 0 0 0 0 0 0 0 0 0 0 0 0 0 0 0 0 0 0 0 0 0 0 0 0 0 0 0 0 0 0 0 0 0 0 0 0 0 0 0 0 0 0 0 0 0 0 0 0 0 0 0 0 0 0 0 0 0 0 0 0 0 0 0 0 0 0 0 0 0 0 0 0 0 0 0 0 0 0 0 0 0 0 0 0 0 0 0 0 0 0 0 0 0 0 0 0 0 0 0 0 0 0 0 0 0 0 0 0 0 0 0 0 0 0 0 0 0 0 0 0 0 0 0 0 0 0 0 0 0 0 0 0 0 0 0 0 0 0 0 0 0 0 0 0 0 0 0 0 0 0 0 0 0 0 0 0 0 0 0 0 0 0 0 0 0 0 0 0 0 0 0 0 0 0 0 0 0 0 0 0 0 0 0 0 0 0 0 0 0 0 0 0 0 0 0 0 0 0 0 0 0 0 0 0 0 0 0 0 0 0 0 0 0 0 0 0 0 0 0 0 0 0 0 0 0 0 0 0 0 0 0 0 0 0 0 0 0 0 0 0 0 0 0 0 0 0 0 0 0 0 0 0 0 0 0 0 0 0 0 0 0 0 0 0 0 0 0 0 0 0 0 0 0 0 0 0 0 0 0 0 0 0 0 0 0 0 0 0 0 0 0 0 0 0 0 0 0 0 0 0 0 0 0 0 0 0 0 0 0 0 0 0 0 0 0 0 0 0 0 0 0 0 0 0 0 0 0 0 0 0 0 0 0 0 0 0 0 0 0 0 0 0 0 0 0 0 0 0 0 0 0 0 0 0 0 0 0 0 0 0 0 0 0 0 0 0 0 0 0 0 0 0 0 0 0 0 0 0 0 0 0 0 0 0 0 0 0 0 0 0 0 0 0 0 0 0 0 0 0 0 0 0 0 0 0 0 0 0 0 0 0 0 0 0 0 0 0 0 0 0 0 0 0 0 0 0 0 0 0 0 0 0 0 0 0 0 0 0 0 0 0 0 0 0 0 0 0 0 0 0 0 0 0 0 0 0 0 0 0 0 0 0 0 0 0 0 0 0 0 0 0 0 0 0 0 0 0 0 0 0 0 0 0 0 0 0 0 0 0 0 0 0 0 0 0 0 0 0 0 0 0 0 0 0 0 0 0 0 0 0 0 0 0 0 0 0 0 0 0 0 0 0 0 0 0 0 0 0 0 0 0 0 0 0 0 0 0 0 0 0 0 0 0 0 0 0 0 0 0 0 0 0 0 0 0 0 0 0 0 0 0 0 0 0 0 0 0 0 0 0 0 0 0 0 0 0 0 0 0 0 0 0 0 0 0 0 0 0 0 0 0 0 0 0 0 0 0 0 0 0 0 0 0 0 0 0 0 0 0 0 0 0 0 0 0 0 0 0 0 0 0 0 0 0 0 0 0 0 0 0 0 0 0 0 0 0 0 0 0 0 0 0 0 0 0 0 0 0 0 0 0 0 0 0 0 0 0 0 0 0 0 0 0 0 0 0 0 0 0 0 0 0 0 0 0 0 0 0 0 0 0 0 0 0 0 0 0 0 0 0 0 0 0 0 0 0 0 0 0 0 0 0 0 0 0 0 0 0 0 0 0 0 0 0 0 0 0 0 0 0 0 0 0 0 0 0 0 0 0 0 0 0 0 0 0 0 0 0 0 0 0 0 0 0 0 0 0 0 0 0 0 0 0 0 0 0 0 0 0 0 0 0 0 0 0 0 0 0 0 0 0 0 0 0 0 0 0 0 0 0 0 0 0 0 0 0 0 0 0 0 0 0 0 0 0 0 0 0 0 0 0 0 0 0 0 0 0 0 0 0 0 0 0 0 0 0 0 0 0 0 0 0 0 0 0 0 0 0 0 0 0 0 0 0 0 0 0 0 0 0 0 0 0 0 0 0 0 0 0 0 0 0 0 0 0 0 0 0 0 0 0 0 0 0 0 0 0 0 0 0 0 0 0 0 0 0 0 0 0 0 0 0 0 0 0 0 0 0 0 0 0 0 0 0 0 0 0 0 0 0 0 0 0 0 0 0 0 0 0 0 0 0 0 0 0 0 0 0 0 0 0 0 0 0 0 0 0 0 0 0 0 0 0 0 0 0 0 0 0 0 0 0 0 0 0 0 0 0 0 0 0 0 0 0 0 0 0 0 0 0 0 0 0 0 0 0 0 0 0 0 0 0 0 0 0 0 0 0 0 0 0 0 0 0 0 0 0 0 0 0 0 0 0 0 0 0 0 0 0 0 0 0 0 0 0 0 0 0 0 0 0 0 0 0 0 0 0 0 0 0 0 0 0 0 0 0 0 0 0 0 0 0 0 0 0 0 0 0 0 0 0 0 0 0 0 0 0 0 0 0 0 0 0 0 0 0 0 0 0 0 0 0 0 0 0 0 0 0 0 0 0 0 0 0 0 0 0 0 0 0 0 0 0 0 0 0 0 0 0 0 0 0 0 0 0 0 0 0 0 0 0 0 0 0 0 0 0 0 0 0 0 0 0 0 0 0 0 0 0 0 0 0 0 0 0 0 0 0 0 0 0 0 0 0 0 0 0 0 0 0 0 0 0 0 0 0 0 0 0 0 0 0 0 0 0 0 0 0 0 0 0 0 0 0 0 0 0 0 0 0 0 0 0 0 0 0 0 0 0 0 0 0 0 0 0 0 0 0 0 0 0 0 0 0 0 0 0 0 0 0 0 0 0 0 0 0 0 0 0 0 0 0 0 0 0 0 0 0 0 0 0 0 0 0 0 0 0 0 0 0 0 0 0 0 0 0 0 0 0 0 0 0 0 0 0 0 0 0 0 0 0 0 0 0 0 0 0 0 0 0 0 0 0 0 0 0 0 0 0 0 0 0 0 0 0 0 0 0 0 0 0 0 0 0 0 0 0 0 0 0 0 0 0 0 0 0 0 0 0 0 0 0 0 0 0 0 0 0 0 0 0 0 0 0 0 0 0 0 0 0 0 0 0 0 0 0 0 0 0 0 0 0 0 0 0 0 0 0 0 0 0 0 0 0 0 0 0 0 0 0 0 0 0 0 0 0 0 0 0 0 0 0 0 0 0 0 0 0 0 0 0 0 0 0 0 0 0 0 0 0 0 0 0 0 0 0 0 0 0 0 0 0 0 0 0 0 0 0 0 0 0 0 0 0 0 0 0 0 0 0 0 0 0 0 0 0 0 0 0 0 0 0 0 0 0 0 0 0 0 0 0 0 0 0 0 0 0 0 0 0 0 0 0 0 0 0 0 0 0 0 0 0 0 0 0 0 0 0 0 0 0 0 0 0 0 0 0 0 0 0 0 0 0 0 0 0 0 0 0 0 0 0 0 0 0 0 0 0 0 0 0 0 0 0 0 0 0 0 0 0 0 0 0 0 0 0 0 0 0 0 0 0 0 0 0 0 0 0 0 0 0 0 0 0 0 0 0 0 0 0 0 0 0 0 0 0 0 0 0 0 0 0 0 0 0 0 0 0 0 0 0 0 0 0 0 0 0 0 0 0 0 0 0 0 0 0 0 0 0 0 0 0 0 0 0 0 0 0 0 0 0 0 0 0 0 0 0 0 0 0 0 0 0 0 0 0 0 0 0 0 0 0 0 0 0 0 0 0 0 0 0 0 0 0 0 0 0 0 0 0 0 0 0 0 0 0 0 0 0 0 0 0 0 0 0 0 0 0 0 0 0 0 0 0 0 0 0 0 0 0 0 0 0 0 0 0 0 0 0 0 0 0 0 0 0 0 0 0 0 0 0 0 0 0 0 0 0 0 0 0 0 0 0 0 0 0 0 0 0 0 0 0 0 0 0 0 0 0 0 0 0 0 0 0 0 0 0 0 0 0 0 0 0 0 0 0 0 0 0 0 0 0 0 0 0 0 0 0 0 0 0 0 0 0 0 0 0 0 0 0 0 0 0 0 0 0 0 0 0 0 0 0 0 0 0 0 0 0 0 0 0 0 0 0 0 0 0 0 0 0 0 0 0 0 0 0 0 0 0 0 0 0 0 0 0 0 0 0 0 0 0 0 0 0 0 0 0 0 0 0 0 0 0 0 0 0 0 0 0 0 0 0 0 0 0 0 0 0 0 0 0 0 0 0 0 0 0 0 0 0 0 0 0 0 0 0 0 0 0 0 0 0 0 0 0 0 0 0 0 0 0 0 0 0 0 0 0 0 0 0 0 0 0 0 0 0 0 0 0 0 0 0 0 0 0 0 0 0 0 0 0 0 0 0 0 0 0 0 0 0 0 0 0 0 0 0 0 0 0 0 0 0 0 0 0 0 0 0 0 0 0 0 0 0 0 0 0 0 0 0 0 0 0 0 0 0 0 0 0 0 0 0 0 0 0 0 0 0 0 0 0 0 0 0 0 0 0 0 0 0 0 0 0 0 0 0 0 0 0 0 0 0 0 0 0 0 0 0 0 0 0 0 0 0 0 0 0 0 0 0 0 0 0 0 0 0 0 0 0 0 0 0 0 0 0 0 0 0 0 0 0 0 0 0 0 0 0 0 0 0 0 0 0 0 0 0 0 0 0 0 0 0 0 0 0 0 0 0 0 0 0 0 0 0 0 0 0 0 0 0 0 0 0 0 0 0 0 0 0 0 0 0 0 0 0 0 0 0 0 0 0 0 0 0 0 0 0 0 0 0 0 0 0 0 0 0 0 0 0 0 0 0 0 0 0 0 0 0 0 0 0 0 0 0 0 0 0 0 0 0 0 0 0 0 0 0 0 0 0 0 0 0 0 0 0 0 0 0 0 0 0 0 0 0 0 0 0 0 0 0 0 0 0 0 0 0 0 0 0 0 0 0 0 0 0 0 0 0 0 0 0 0 0 0 0 0 0 0 0 0 0 0 0 0 0 0 0 0 0 0 0 0 0 0 0 0 0 0 0 0 0 0 0 0 0 0 0 0 0 0 0 0 0 0 0 0 0 0 0 0 0 0 0 0 0 0 0 0 0 0 0 0 0 0 0 0 0 0 0 0 0 0 0 0 0 0 0 0 0 0 0 0 0 0 0 0 0 0 0 0 0 0 0 0 0 0 0 0 0 0 0 0 0 0 0 0 0 0 0 0 0 0 0 0 0 0 0 0 0 0 0 0 0 0 0 0 0 0 0 0 0 0 0 0 0 0 0 0 0 0 0 0 0 0 0 0 0 0 0 0 0 0 0 0 0 0 0 0 0 0 0 0 0 0 0 0 0 0 0 0 0 0 0 0 0 0 0 0 0 0 0 0 0 0 0 0 0 0 0 0 0 0 0 0 0 0 0 0 0 0 0 0 0 0 0 0 0 0 0 0 0 0 0 0 0 0 0 0 0 0 0 0 0 0 0 0 0 0 0 0 0 0 0 0 0 0 0 0 0 0 0 0 0 0 0 0 0 0 0 0 0 0 0 0 0 0 0 0 0 0 0 0 0 0 0 0 0 0 0 0 0 0 0 0 0 0 0 0 0 0 0 0 0 0 0 0 0 0 0 0 0 0 0 0 0 0 0 0 0 0 0 0 0 0 0 0 0 0 0 0 0 0 0 0 0 0 0 0 0 0 0 0 0 0 0 0 0 0 0 0 0 0 0 0 0 0 0 0 0 0 0 0 0 0 0 0 0 0 0 0 0 0 0 0 0 0 0 0 0 0 0 0 0 0 0 0 0 0 0 0 0 0 0 0 0 0 0 0 0 0 0 0 0 0 0 0 0 0 0 0 0 0 0 0 0 0 0 0 0 0 0 0 0 0 0 0 0 0 0 0 0 0 0 0 0 0 0 0 0 0 0 0 0 0 0 0 0 0 0 0 0 0 0 0 0 0 0 0 0 0 0 0 0 0 0 0 0 0 0 0 0 0 0 0 0 0 0 0 0 0 0 0 0 0 0 0 0 0 0 0 0 0 0 0 0 0 0 0 0 0 0 0 0 0 0 0 0 0 0 0 0 0 0 0 0 0 0 0 0 0 0 0 0 0 0 0 0 0 0 0 0 0 0 0 0 0 0 0 0 0 0 0 0 0 0 0 0 0 0 0 0 0 0 0 0 0 0 0 0 0 0 0 0 0 0 0 0 0 0 0 0 0 0 0 0 0 0 0 0 0 0 0 0 0 0 0 0 0 0 0 0 0 0 0 0 0 0 0 0 0 0 0 0 0 0 0 0 0 0 0 0 0 0 0 0 0 0 0 0 0 0 0 0 0 0 0 0 0 0 0 0 0 0 0 0 0 0 0 0 0 0 0 0 0 0 0 0 0 0 0 0 0 0 0 0 0 0 0 0 0 0 0 0 0 0 0 0 0 0 0 0 0 0 0 0 0 0 0 0 0 0 0 0 0 0 0 0 0 0 0 0 0 0 0 0 0 0 0 0 0 0 0 0 0 0 0 0 0 0 0 0 0 0 0 0 0 0 0 0 0 0 0 0 0 0 0 0 0 0 0 0 0 0 0 0 0 0 0 0 0 0 0 0 0 0 0 0 0 0 0 0 0 0 0 0 0 0 0 0 0 0 0 0 0 0 0 0 0 0 0 0 0 0 0 0 0 0 0 0 0 0 0 0 0 0 0 0 0 0 0 0 0 0 0 0 0 0 0 0 0 0 0 0 0 0 0 0 0 0 0 0 0 0 0 0 0 0 0 0 0 0 0 0 0 0 0 0 0 0 0 0 0 0 0 0 0 0 0 0 0 0 0 0 0 0 0 0 0 0 0 0 0 0 0 0 0 0 0 0 0 0 0 0 0 0 0 0 0 0 0 0 0 0 0 0 0 0 0 0 0 0 0 0 0 0 0 0 0 0 0 0 0 0 0 0 0 0 0 0 0 0 0 0 0 0 0 0 0 0 0 0 0 0 0 0 0 0 0 0 0 0 0 0 0 0 0 0 0 0 0 0 0 0 0 0 0 0 0 0 0 0 0 0 0 0 0 0 0 0 0 0 0 0 0 0 0 0 0 0 0 0 0 0 0 0 0 0 0 0 0 0 0 0 0 0 0 0 0 0 0 0 0 0 0 0 0 0 0 0 0 0 0 0 0 0 0 0 0 0 0 0 0 0 0 0 0 0 0 0 0 0 0 0 0 0 0 0 0 0 0 0 0 0 0 0 0 0 0 0 0 0 0 0 0 0 0 0 0 0 0 0 0 0 0 0 0 0 0 0 0 0 0 0 0 0 0 0 0 0 0 0 0 0 0 0 0 0 0 0 0 0 0 0 0 0 0 0 0 0 0 0 0 0 0 0 0 0 0 0 0 0 0 0 0 0 0 0 0 0 0 0 0 0 0 0 0 0 0 0 0 0 0 0 0 0 0 0 0 0 0 0 0 0 0 0 0 0 0 0 0 0 0 0 0 0 0 0 0 0 0 0 0 0 0 0 0 0 0 0 0 0 0 0 0 0 0 0 0 0 0 0 0 0 0 0 0 0 0 0 0 0 0 0 0 0 0 0 0 0 0 0 0 0 0 0 0 0 0 0 0 0 0 0 0 0 0 0 0 0 0 0 0 0 0 0 0 0 0 0 0 0 0 0 0 0 0 0 0 0 0 0 0 0 0 0 0 0 0 0 0 0 0 0 0 0 0 0 0 0 0 0 0 0 0 0 0 0 0 0 0 0 0 0 0 0 0 0 0 0 0 0 0 0 0 0 0 0 0 0 0 0 0 0 0 0 0 0 0 0 0 0 0 0 0 0 0 0 0 0 0 0 0 0 0 0 0 0 0 0 0 0 0 0 0 0 0 0 0 0 0 0 0 0 0 0 0 0 0 0 0 0 0 0 0 0 0 0 0 0 0 0 0 0 0 0 0 0 0 0 0 0 0 0 0 0 0 0 0 0 0 0 0 0 0 0 0 0 0 0 0 0 0 0 0 0 0 0 0 0 0 0 0 0 0 0 0 0 0 0 0 0 0 0 0 0 0 0 0 0 0 0 0 0 0 0 0 0 0 0 0 0 0 0 0 0 0 0 0 0 0 0 0 0 0 0 0 0 0 0 0 0 0 0 0 0 0 0 0 0 0 0 0 0 0 0 0 0 0 0 0 0 0 0 0 0 0 0 0 0 0 0 0 0 0 0 0 0 0 0 0 0 0 0 0 0 0 0 0 0 0 0 0 0 0 0 0 0 0 0 0 0 0 1 2 0 0 0 0 0 0 0 0 0 0 0 0 0 0 0 0 0 0 0 0 0 0 0 0 0 2 0 0 0 0 0 0 0 0 0 0 0 0 0 0 0 0 0 0 0 0 0 0 0 0 0 0 0 0 0 0 0 0 0 0 0 0 0 0 0 0 0 0 0 0 0 0 0 0 0 0 0 0 0 0 0 0 0 0 0 0 0 0 0 0 0 0 0 0 0 0 0 0 0 0 0 0 0 0 0 0 0 0 0 0 0 0 0 0 0 0 0 0 0 0 0 0 0 0 0 0 0 0 0 0 0 0 0 0 0 0 0 0 0 0 0 0 0 0 0 0 0 0 0 0 0 0 0 0 0 0 0 0 0 0 0 0 0 0 0 0 0 0 0 0 0 0 0 0 0 0 0 0 0 0 0 0 0 0 0 0 0 0 0 0 0 0 0 0 0 0 0 0 0 0 0 0 0 0 0 0 0 0 0 0 0 0 0 0 0 0 0 0 0 0 0 0 0 0 0 0 0 0 0 0 0 0 0 0 0 0 0 0 0 0 0 0 0 0 0 0 0 0 0 0 0 0 0 0 0 0 0 0 0 0 0 0 0 0 0 0 0 0 0 0 0 0 0 0 0 0 0 0 0 0 0 0 0 0 0 0 0 0 0 0 0 0 0 0 0 0 0 0 0 0 0 0 0 0 0 0 0 0 0 0 0 0 0 0 0 0 0 0 0 0 0 0 0 0 0 0 0 0 0 0 0 0 0 0 0 0 0 0 0 0 0 0 0 0 0 0 0 0 0 0 0 0 0 0 0 0 0 0 0 0 0 0 0 0 0 0 0 0 0 0 0 0 0 0 0 0 0 0 0 0 0 0 0 0 0 0 0 0 0 0 0 0 0 0 0 0 0 0 0 0 0 0 0 0 0 0 0 0 0 0 0 0 0 0 0 0 0 0 0 0 0 0 0 0 0 0 0 0 0 0 0 0 0 0 0 0 0 0 0 0 0 0 0 0 0 0 0 0 0 0 0 0 0 0 0 0 0 0 0 0 0 0 0 0 0 0 0 0 0 0 0 0 0 0 0 0 0 0 0 0 0 0 0 0 0 0 0 0 0 0 0 0 0 0 0 0 0 0 0 0 0 0 0 0 0 0 0 0 0 0 0 0 0 0 0 0 0 0 0 0 0 0 0 0 0 0 0 0 0 0 0 0 0 0 0 0 0 0 0 0 0 0 0 0 0 0 0 0 0 0 0 0 0 0 0 0 0 0 0 0 0 0 0 0 0 0 0 0 0 0 0 0 0 0 0 0 0 0 0 0 0 0 0 0 0 0 0 0 0 0 0 0 0 0 0 0 0 0 0 0 0 0 0 0 0 0 0 0 0 0 0 0 0 0 0 0 0 0 0 0 0 0 0 0 0 0 0 0 0 0 0 0 0 0 0 0 0 0 0 0 0 0 0 0 0 0 0 0 0 0 0 0 0 0 0 0 0 0 0 0 0 0 0 0 0 0 0 0 0 0 0 0 1 2 5 10 0 0 0 0 0 0 0 0 0 0 0 0 0 0 0 0 0 0 0 0 0 0 0 0 1 8 0 0 0 0 0 0 0 0 0 0 0 0 0 0 0 0 0 0 0 0 0 0 0 0 0 1 0 0 0 0 0 0 0 0 0 0 0 0 0 0 0 0 0 0 0 0 0 0 0 0 0 0 0 0 0 0 0 0 0 0 0 0 0 0 0 0 0 0 0 0 0 0 0 0 0 0 0 0 0 0 0 0 0 0 0 0 0 0 0 0 0 0 0 0 0 0 0 0 0 0 0 0 0 0 0 0 0 0 0 0 0 0 0 0 0 0 0 0 0 0 0 0 0 0 0 0 0 0 0 0 0 0 0 0 0 0 0 0 0 0 0 0 0 0 0 0 0 0 0 0 0 0 0 0 0 0 0 0 0 0 0 0 0 0 0 0 0 0 0 0 0 0 0 0 0 0 0 0 0 0 0 0 0 0 0 0 0 0 0 0 0 0 0 0 0 0 0 0 0 0 0 0 0 0 0 0 0 0 0 0 0 0 0 0 0 0 0 0 0 0 0 0 0 0 0 0 0 0 0 0 0 0 0 0 0 0 0 0 0 0 0 0 0 0 0 0 0 0 0 0 0 0 0 0 0 0 0 0 0 0 0 0 0 0 0 0 0 0 0 0 0 0 0 0 0 0 0 0 0 0 0 0 0 0 0 0 0 0 0 0 0 0 0 0 0 0 0 0 0 0 0 0 0 0 0 0 0 0 0 0 0 0 0 0 0 0 0 0 0 0 0 0 0 0 0 0 0 0 0 0 0 0 0 0 0 0 0 0 0 0 0 0 0 0 0 0 0 0 0 0 0 0 0 0 0 0 0 0 0 0 0 0 0 0 0 0 0 0 0 0 0 0 0 0 0 0 0 0 0 0 0 0 0 0 0 0 0 0 0 0 0 0 0 0 0 0 0 0 0 0 0 0 0 0 0 0 0 0 0 0 0 0 0 0 0 0 0 0 0 0 0 0 0 0 0 0 0 0 0 0 0 0 0 0 0 0 0 0 0 0 0 0 0 0 0 0 0 0 0 0 0 0 0 0 0 0 0 0 0 0 0 0 0 0 0 0 0 0 0 0 0 0 0 0 0 0 0 0 0 0 0 0 0 0 0 0 0 0 0 0 0 0 0 0 0 0 0 0 0 0 0 0 0 0 0 0 0 0 0 0 0 0 0 0 0 0 0 0 0 0 0 0 0 0 0 0 0 0 0 0 0 0 0 0 0 0 0 0 0 0 0 0 0 0 0 0 0 0 0 0 0 0 0 0 0 0 0 0 0 0 0 0 0 0 0 0 0 0 0 0 0 0 0 0 0 0 0 0 0 0 0 0 0 0 0 0 0 0 0 0 0 0 0 0 0 0 0 0 0 0 0 0 0 0 0 0 0 0 0 0 0 0 0 0 0 0 0 0 0 0 0 0 0 0 0 0 0 0 0 0 0 0 0 0 0 0 0 0 0 0 0 0 0 0 0 1 2 5 11 18 0 0 0 0 0 0 0 0 0 0 0 0 0 0 0 0 0 0 0 0 0 0 0 0 2 14 0 0 0 0 0 0 0 0 0 0 0 0 0 0 0 0 0 0 0 0 0 0 0 0 0 2 0 0 0 0 0 0 0 0 0 0 0 0 0 0 0 0 0 0 0 0 0 0 0 0 0 0 0 0 0 0 0 0 0 0 0 0 0 0 0 0 0 0 0 0 0 0 0 0 0 0 0 0 0 0 0 0 0 0 0 0 0 0 0 0 0 0 0 0 0 0 0 0 0 0 0 0 0 0 0 0 0 0 0 0 0 0 0 0 0 0 0 0 0 0 0 0 0 0 0 0 0 0 0 0 0 0 0 0 0 0 0 0 0 0 0 0 0 0 0 0 0 0 0 0 0 0 0 0 0 0 0 0 0 0 0 0 0 0 0 0 0 0 0 0 0 0 0 0 0 0 0 0 0 0 0 0 0 0 0 0 0 0 0 0 0 0 0 0 0 0 0 0 0 0 0 0 0 0 0 0 0 0 0 0 0 0 0 0 0 0 0 0 0 0 0 0 0 0 0 0 0 0 0 0 0 0 0 0 0 0 0 0 0 0 0 0 0 0 0 0 0 0 0 0 0 0 0 0 0 0 0 0 0 0 0 0 0 0 0 0 0 0 0 0 0 0 0 0 0 0 0 0 0 0 0 0 0 0 0 0 0 0 0 0 0 0 0 0 0 0 0 0 0 0 0 0 0 0 0 0 0 0 0 0 0 0 0 0 0 0 0 0 0 0 0 0 0 0 0 0 0 0 0 0 0 0 0 0 0 0 0 0 0 0 0 0 0 0 0 0 0 0 0 0 0 0 0 0 0 0 0 0 0 0 0 0 0 0 0 0 0 0 0 0 0 0 0 0 0 0 0 0 0 0 0 0 0 0 0 0 0 0 0 0 0 0 0 0 0 0 0 0 0 0 0 0 0 0 0 0 0 0 0 0 0 0 0 0 0 0 0 0 0 0 0 0 0 0 0 0 0 0 0 0 0 0 0 0 0 0 0 0 0 0 0 0 0 0 0 0 0 0 0 0 0 0 0 0 0 0 0 0 0 0 0 0 0 0 0 0 0 0 0 0 0 0 0 0 0 0 0 0 0 0 0 0 0 0 0 0 0 0 0 0 0 0 0 0 0 0 0 0 0 0 0 0 0 0 0 0 0 0 0 0 0 0 0 0 0 0 0 0 0 0 0 0 0 0 0 0 0 0 0 0 0 0 0 0 0 0 0 0 0 0 0 0 0 0 0 0 0 0 0 0 0 0 0 0 0 0 0 0 0 0 0 0 0 0 0 0 0 0 0 0 0 0 0 0 0 0 0 0 0 0 0 0 0 0 0 0 0 0 0 0 0 0 0 0 0 0 0 0 0 0 0 0 0 0 0 0 0 0 0 0 0 0 0 0 0 0 0 0 0 0 0 0 0 0 0 0 0 0 0 0 0 0 0 0 0 0 0 0 0 0 0 0 0 0 1 4 5 9 18 23 0 0 0 0 0 0 0 0 0 0 0 0 0 0 0 0 0 0 0 0 1 2 2 3 4 18 0 0 0 0 0 0 0 0 0 0 0 0 0 0 0 0 0 0 0 1 1 1 1 1 1 5 0 0 0 0 0 0 0 0 0 0 0 0 0 0 0 0 0 0 0 1 1 1 1 1 1 1 0 0 0 0 0 0 0 1 0 0 0 0 0 0 0 0 0 0 0 0 1 1 1 1 0 0 0 0 0 0 0 0 0 0 0 0 0 0 0 0 0 0 0 0 0 0 0 0 1 1 0 0 0 0 0 0 0 0 0 0 0 0 0 0 0 0 0 0 0 0 0 0 0 0 0 0 0 0 0 0 0 0 0 0 0 0 0 0 0 0 0 0 0 0 0 0 0 0 0 0 0 0 0 0 0 0 0 0 0 0 0 0 0 0 0 0 0 0 0 0 0 0 0 0 0 0 0 0 0 0 0 0 0 0 0 0 0 0 0 0 0 0 0 0 0 0 0 0 0 0 0 0 0 0 0 0 0 0 0 0 0 0 0 0 0 0 0 0 0 0 0 0 0 0 0 0 0 0 0 0 0 0 0 0 0 0 0 0 0 0 0 0 0 0 0 0 0 0 0 0 0 0 0 0 0 0 0 0 0 0 0 0 0 0 0 0 0 0 0 0 0 0 0 0 0 0 0 0 0 0 0 0 0 0 0 0 0 0 0 0 0 0 0 0 0 0 0 0 0 0 0 0 0 0 0 0 0 0 0 0 0 0 0 0 0 0 0 0 0 0 0 0 0 0 0 0 0 0 0 0 0 0 0 0 0 0 0 0 0 0 0 0 0 0 0 0 0 0 0 0 0 0 0 0 0 0 0 0 0 0 0 0 0 0 0 0 0 0 0 0 0 0 0 0 0 0 0 0 0 0 0 0 0 0 0 0 0 0 0 0 0 0 0 0 0 0 0 0 0 0 0 0 0 0 0 0 0 0 0 0 0 0 0 0 0 0 0 0 0 0 0 0 0 0 0 0 0 0 0 0 0 0 0 0 0 0 0 0 0 0 0 0 0 0 0 0 0 0 0 0 0 0 0 0 0 0 0 0 0 0 0 0 0 0 0 0 0 0 0 0 0 0 0 0 0 0 0 0 0 0 0 0 0 0 0 0 0 0 0 0 0 0 0 0 0 0 0 0 0 0 0 0 0 0 0 0 0 0 0 0 0 0 0 0 0 0 0 0 0 0 0 0 0 0 0 0 0 0 0 0 0 0 0 0 0 0 0 0 0 0 0 0 0 0 0 0 0 0 0 0 0 0 0 0 0 0 0 0 0 0 0 0 0 0 0 0 0 0 0 0 0 0 0 0 0 0 0 0 0 0 0 0 0 0 0 0 0 0 0 0 0 0 0 0 0 0 0 0 0 0 0 0 0 0 0 0 0 0 0 0 0 0 0 0 0 0 0 0 0 0 0 0 0 1 1 1 1 2 4 4 3 3 2 2 3 3 2 2 2 2 2 5 21 38 33 30 51 56 0 0 1 1 1 2 3 3 3 3 2 2 3 3 3 3 3 3 4 5 12 27 32 28 31 52 0 0 1 1 1 2 4 4 3 3 3 3 4 4 4 3 3 3 4 4 5 12 24 25 20 24 0 0 1 1 2 3 5 5 4 3 3 4 4 4 4 3 3 3 3 4 5 9 17 19 14 8 0 0 1 1 2 3 5 5 4 3 3 3 3 2 2 3 3 3 2 3 4 8 13 15 12 6 0 0 1 1 1 2 4 4 3 3 3 3 2 2 2 2 2 3 2 2 3 5 8 9 9 5 0 0 1 1 1 2 3 3 3 3 3 3 2 2 1 1 2 2 2 2 2 3 4 5 5 4 0 0 1 1 1 1 2 2 2 2 2 2 2 2 1 1 1 2 2 3 2 2 2 2 2 2 0 0 1 1 1 1 2 2 2 2 2 2 2 1 1 1 2 2 3 3 3 2 1 1 1 1 0 0 1 1 1 1 1 2 2 3 2 2 2 2 2 2 2 3 3 3 3 2 2 2 3 2 0 0 1 1 1 1 1 1 2 2 2 2 2 2 2 3 4 4 3 3 2 2 2 2 4 5 0 0 1 1 1 1 1 1 2 2 2 2 1 2 2 3 4 4 3 3 2 2 1 1 3 5 0 0 1 1 1 1 1 1 2 2 2 1 1 1 1 2 2 3 2 2 2 1 1 1 2 4 0 0 1 1 1 1 1 1 2 2 2 1 1 1 1 1 2 2 2 2 2 1 1 2 2 4 0 0 1 1 1 1 1 1 1 2 2 2 2 1 1 1 1 2 2 2 2 2 2 2 2 3 0 0 1 1 1 1 1 1 1 2 2 2 2 2 2 2 2 2 2 2 2 2 2 2 2 2 0 0 1 1 1 1 1 1 1 2 2 2 3 2 2 2 2 2 3 3 3 2 2 2 2 2 0 0 1 1 1 1 1 1 2 2 2 2 3 3 2 2 2 3 3 4 3 3 2 2 2 2 0 0 1 1 1 1 1 1 2 2 2 2 2 3 3 3 3 4 4 5 5 4 3 3 3 4 0 0 1 1 1 1 1 1 2 2 2 2 2 2 3 3 3 4 6 6 6 5 3 3 3 5 0 1 1 1 1 1 1 1 2 2 2 2 2 2 3 3 4 5 6 7 6 5 4 3 3 5 0 1 1 1 1 1 1 2 2 2 2 2 2 2 2 3 3 4 5 6 5 5 3 3 2 3 0 0 1 1 1 1 1 2 2 2 2 2 1 2 2 2 2 2 3 3 3 3 3 2 2 2 0 0 1 1 1 1 1 1 1 1 1 1 1 1 1 1 1 1 1 1 1 2 2 2 1 1 0 0 0 1 1 1 1 1 1 1 1 1 1 0 0 0 0 0 0 1 1 1 1 1 1 1 0 0 0 0 0 0 0 0 0 0 0 0 0 0 0 0 0 0 0 0 0 0 0 0 0 0 6 9 10 11 17 23 27 27 26 26 27 30 31 23 15 12 10 12 29 53 78 97 84 82 131 138 7 8 10 12 17 22 25 23 21 21 23 28 29 24 17 14 12 17 31 46 65 92 102 88 98 141 6 8 10 13 17 22 24 23 20 20 24 29 29 26 20 15 13 16 24 32 45 72 103 100 74 83 6 8 11 13 18 22 24 22 20 20 23 27 29 27 23 18 14 13 15 21 33 57 92 105 78 42 7 8 10 12 17 21 23 22 20 20 20 21 23 23 23 21 17 13 12 15 24 42 72 100 95 57 7 8 9 11 15 19 22 22 22 21 20 19 17 16 18 21 20 15 13 14 17 27 44 73 93 71 7 8 10 11 13 16 20 22 23 23 23 20 17 13 12 16 19 17 15 14 14 17 22 39 67 60 7 8 9 10 12 15 19 21 23 23 23 21 17 12 10 11 15 17 16 15 14 13 14 19 34 36 5 7 8 10 11 15 19 22 22 22 22 20 17 13 11 11 13 16 17 17 14 13 13 15 19 22 3 7 8 9 11 14 20 24 24 23 22 21 19 16 14 13 14 16 17 17 15 13 13 17 22 24 4 8 8 9 10 13 18 23 25 25 23 21 21 21 20 19 18 17 16 15 14 12 12 17 27 32 5 9 9 9 10 12 15 20 24 26 23 20 20 21 23 23 21 19 16 14 11 9 9 13 25 36 5 10 10 10 11 12 13 17 22 25 24 20 18 18 19 20 21 20 17 14 10 8 8 11 22 36 5 10 11 10 11 11 12 15 19 23 24 20 17 16 16 17 19 20 18 15 11 8 8 12 22 37 5 11 12 11 11 11 12 14 17 21 23 22 18 16 15 15 17 19 19 16 13 10 10 12 19 33 5 12 13 11 12 11 11 13 15 18 21 22 21 18 16 16 18 21 21 17 14 12 11 13 16 23 4 11 13 12 12 12 12 12 14 17 19 21 22 21 18 17 19 23 24 19 15 13 13 13 14 15 3 8 11 12 12 12 12 13 14 16 17 19 21 22 20 19 20 25 28 24 20 17 16 14 14 14 2 7 11 12 12 12 12 14 15 16 17 18 20 22 22 22 22 28 34 33 28 24 20 17 15 18 2 7 11 12 11 12 13 14 15 16 17 18 20 22 23 23 24 28 36 39 36 29 23 17 15 22 3 8 11 12 11 12 13 14 16 17 17 17 18 20 22 23 24 26 33 38 37 31 24 18 15 21 2 7 10 11 11 12 13 16 18 19 18 17 17 19 20 21 21 22 26 31 33 32 27 20 15 18 3 6 9 10 11 12 13 16 18 19 19 17 16 16 17 17 17 17 19 23 26 29 26 20 14 16 4 5 7 9 10 11 12 14 15 17 17 15 14 13 12 13 13 13 15 18 21 23 21 17 14 13 3 4 5 6 7 8 9 10 11 12 13 12 11 10 9 10 9 9 10 13 17 20 19 17 14 9 2 3 4 3 4 6 6 7 8 7 5 5 4 6 9 9 6 3 4 5 12 14 10 10 8 4 20 37 45 50 63 69 70 67 67 73 81 87 87 73 57 50 44 42 59 88 119 145 138 139 184 181 26 37 47 54 65 70 68 63 61 67 76 82 81 71 58 49 44 45 61 82 106 147 166 152 153 182 26 36 46 54 63 66 65 61 61 64 70 73 73 67 58 50 45 46 57 73 92 137 176 174 142 131 28 37 45 51 58 61 61 61 63 65 67 68 68 66 61 56 49 46 52 65 81 118 168 185 160 109 29 38 44 47 54 58 59 62 67 69 68 66 63 62 62 62 57 49 48 54 66 91 143 181 179 134 24 38 44 46 51 57 61 65 71 73 72 67 60 54 56 62 61 54 49 50 55 67 105 160 181 148 23 37 44 45 49 55 62 67 74 77 75 70 61 51 48 54 59 56 52 51 52 56 77 128 164 143 22 36 43 45 49 54 62 69 75 79 78 73 64 52 46 46 52 54 52 52 52 53 67 101 137 131 19 33 40 44 48 54 65 71 75 79 81 78 69 57 50 46 48 51 53 54 52 51 59 83 114 120 19 33 38 41 46 54 66 72 74 77 81 81 76 67 60 54 50 50 52 53 51 48 51 67 94 109 15 35 38 40 45 52 64 71 73 75 77 79 79 76 72 67 59 53 50 49 46 43 45 57 77 95 18 39 39 39 44 51 61 68 73 76 76 74 75 77 78 76 70 61 53 47 42 38 42 57 72 82 17 40 42 41 45 50 57 65 73 77 77 71 68 70 74 76 74 69 59 50 41 37 42 61 80 83 19 43 45 42 44 48 53 62 72 78 78 72 66 64 67 73 76 75 67 55 45 39 41 61 87 98 19 45 49 44 44 44 47 57 68 75 78 75 68 63 63 70 78 80 75 64 53 46 45 55 80 103 21 49 53 47 46 44 45 52 63 72 77 78 75 67 62 68 81 88 83 70 60 56 54 57 71 93 19 49 55 50 48 46 46 50 58 66 73 77 78 73 65 66 78 90 87 71 61 61 61 62 67 73 29 48 55 52 50 50 51 51 53 59 67 75 80 80 72 64 71 87 90 77 68 69 70 69 68 63 30 48 54 51 51 52 53 53 54 56 62 70 79 84 82 72 70 83 91 84 75 74 74 72 67 62 29 47 54 52 52 54 57 58 56 54 57 65 78 87 90 84 76 81 91 90 81 74 69 63 55 57 30 48 54 53 52 55 59 61 60 57 56 62 73 85 92 89 82 81 88 91 83 73 65 55 47 53 31 48 55 54 54 56 60 65 67 62 57 57 65 79 89 89 84 79 82 85 83 77 69 56 46 52 38 47 53 54 55 57 61 66 70 68 61 55 57 68 77 81 76 71 73 79 80 78 74 64 53 55 35 44 50 51 53 56 59 64 69 71 66 56 50 52 59 66 67 66 69 74 75 73 70 66 59 58 23 36 42 44 46 49 53 57 62 64 63 54 45 42 44 49 53 56 61 68 72 71 67 64 60 56 5 23 33 35 37 40 45 49 53 54 42 35 30 28 30 31 40 41 48 57 66 65 57 54 53 40 67 97 105 106 109 108 106 111 125 139 144 142 136 129 122 121 125 130 144 164 181 195 193 203 223 211 86 99 109 109 111 109 107 112 126 139 142 137 132 126 121 118 118 119 127 146 172 197 206 204 208 216 88 99 109 111 111 108 109 119 132 139 137 129 123 120 117 117 118 119 122 133 159 192 209 209 198 191 90 99 107 109 110 109 116 128 138 139 133 124 118 116 115 117 120 121 124 130 149 181 205 210 197 176 91 99 105 106 109 112 124 135 142 141 133 123 118 115 115 118 122 124 126 128 138 164 194 208 202 177 85 97 104 106 109 115 127 138 145 144 136 126 120 115 115 118 122 126 128 130 132 147 177 202 205 181 83 96 104 106 110 115 126 138 146 145 138 130 123 118 116 117 120 124 129 132 133 140 162 191 201 181 82 95 103 107 111 116 126 138 147 148 143 135 128 122 117 116 119 122 127 133 135 139 153 177 191 179 79 92 100 106 112 117 127 138 147 151 148 141 133 126 120 117 118 120 125 131 134 136 144 161 178 175 78 91 97 103 111 117 127 138 146 151 151 144 137 129 125 121 119 119 122 127 130 130 133 145 162 167 75 90 96 102 110 117 127 137 145 150 150 145 138 133 130 127 123 119 119 121 121 120 122 132 145 153 78 93 97 101 109 116 125 135 145 150 150 144 138 135 134 132 128 123 119 117 114 113 117 131 140 141 79 96 101 104 109 115 122 132 143 150 151 146 139 135 135 133 131 126 121 116 112 111 118 135 147 138 81 99 106 107 111 114 119 128 141 150 152 149 143 137 135 135 133 130 125 117 111 109 117 137 154 148 84 102 109 109 111 112 116 124 135 146 152 152 148 143 139 138 137 136 130 122 114 111 115 131 152 157 87 106 111 110 110 112 115 120 128 139 150 154 153 148 145 143 143 142 136 126 119 116 119 130 147 157 88 107 112 110 111 112 115 119 124 131 142 151 154 151 148 147 147 146 139 128 121 122 126 135 146 151 96 108 112 110 111 114 117 119 121 124 132 144 153 153 149 145 147 148 143 134 130 134 140 145 150 149 96 107 110 108 108 113 118 120 121 123 126 135 146 152 151 146 145 149 148 142 139 144 149 152 153 150 94 104 107 105 106 112 120 123 123 122 123 129 140 150 153 150 146 149 153 149 144 145 146 146 145 143 93 103 104 103 104 111 121 125 126 123 123 127 136 146 152 152 150 151 154 152 144 139 136 131 127 129 93 103 105 103 104 110 121 127 129 126 123 125 131 141 149 151 150 150 152 150 141 133 127 117 111 116 98 102 104 103 104 109 119 128 132 130 125 123 127 134 141 145 145 144 147 144 135 127 122 115 111 116 96 102 105 103 104 107 114 125 132 134 130 124 123 126 131 136 138 138 140 136 126 118 116 117 116 119 84 95 101 100 101 102 108 119 128 132 130 124 119 119 121 124 126 128 130 127 120 113 112 116 118 119 51 83 94 94 95 96 101 111 122 127 121 115 111 110 110 110 116 118 120 120 116 111 108 112 116 95 56 77 80 77 73 70 69 78 96 107 109 103 95 93 92 95 102 112 126 142 152 155 154 169 189 170 72 78 83 79 73 70 70 81 99 109 108 100 93 91 91 93 96 99 106 122 143 157 159 164 174 182 73 79 84 81 76 73 76 90 105 111 106 96 90 88 88 91 96 97 97 104 130 153 159 158 157 158 74 79 83 81 79 79 87 100 109 110 103 93 87 85 85 89 95 99 99 99 117 145 156 152 142 136 74 77 80 80 81 84 96 108 112 110 100 91 87 85 85 87 93 100 102 101 110 133 151 151 138 125 72 76 79 81 82 87 99 110 114 110 100 92 89 88 87 88 92 99 105 106 108 122 142 150 142 125 71 75 79 81 84 87 97 108 114 111 103 95 92 91 91 90 92 98 105 109 110 116 132 145 141 124 70 74 79 82 85 88 95 107 114 113 107 100 96 94 93 93 93 96 103 109 111 115 124 135 134 120 69 73 77 81 86 89 95 106 114 116 111 103 98 96 94 93 94 95 101 107 111 113 118 124 126 117 67 71 75 80 86 89 95 106 115 118 114 105 98 95 93 93 93 94 98 104 107 108 110 115 119 115 66 70 74 79 85 89 95 105 115 119 116 107 99 95 93 93 92 93 95 98 100 99 101 106 113 111 68 71 74 79 85 89 93 103 114 119 118 111 102 97 95 93 92 92 92 93 93 93 95 102 109 107 69 73 77 81 86 88 92 100 111 118 119 115 107 101 97 95 93 92 91 90 90 91 96 104 110 104 71 75 81 84 87 89 91 96 108 117 120 119 114 107 102 97 93 91 89 88 87 88 95 106 113 105 73 77 82 85 87 89 92 94 101 112 119 121 119 115 109 102 96 93 90 87 85 85 91 104 115 110 76 79 82 84 86 89 92 93 96 104 115 120 121 120 118 111 102 95 92 88 85 84 89 101 114 114 77 80 81 83 85 88 91 93 94 97 107 116 120 121 120 118 110 100 94 90 88 88 93 103 114 117 77 79 80 81 83 87 91 93 94 95 99 109 117 118 118 118 116 107 100 96 96 99 105 112 119 121 76 78 78 78 79 84 90 93 95 95 95 100 109 113 114 114 115 113 108 105 106 111 116 120 124 124 75 75 75 74 76 82 89 93 95 96 96 96 101 107 110 111 113 116 115 113 112 115 117 119 121 121 73 73 72 71 73 80 89 94 95 96 96 97 98 103 107 110 112 116 118 115 111 110 109 107 106 106 73 72 71 70 71 78 88 94 96 96 96 98 99 101 104 108 111 115 117 113 105 100 96 90 88 91 73 72 71 70 70 75 85 93 96 96 96 97 99 100 102 105 108 111 113 108 97 90 85 82 82 88 73 74 73 72 71 73 80 91 96 97 97 97 99 100 101 102 104 106 106 99 87 79 79 81 84 87 69 72 74 72 71 71 76 86 94 97 98 97 97 98 99 99 98 98 97 90 79 73 75 81 85 87 49 69 72 71 70 70 72 82 92 96 97 96 95 95 96 96 95 93 91 85 77 72 74 80 85 68 0 0 0 0 0 0 0 0 0 0 0 0 0 0 0 0 0 0 0 0 0 0 0 0 0 0 0 0 0 0 0 0 0 0 0 0 0 0 0 0 0 0 0 0 0 0 0 0 0 0 0 0 0 0 0 0 0 0 0 0 0 0 0 0 0 0 0 0 0 0 0 0 0 0 0 0 0 0 0 0 0 0 0 0 0 0 0 0 0 0 0 0 0 0 0 0 0 0 0 0 0 0 0 0 0 0 0 0 0 0 0 0 0 0 0 0 0 0 0 0 0 0 0 0 0 0 0 0 0 0 0 0 0 0 0 0 0 0 0 0 0 0 0 0 0 0 0 0 0 0 0 0 0 0 0 0 0 0 0 0 0 0 0 0 0 0 0 0 0 0 0 0 0 0 0 0 0 0 0 0 0 0 0 0 0 0 0 0 0 0 0 0 0 0 0 0 0 0 0 0 0 0 0 0 0 0 0 0 0 0 0 0 0 0 0 0 0 0 0 0 0 0 0 0 0 0 0 0 0 0 0 0 0 0 0 0 0 0 0 0 0 0 0 0 0 0 0 0 0 0 0 0 0 0 0 0 0 0 0 0 0 0 0 0 0 0 0 0 0 0 0 0 0 0 0 0 0 0 0 0 0 0 0 0 0 0 0 0 0 0 0 0 0 0 0 0 0 0 0 0 0 0 0 0 0 0 0 0 0 0 0 0 0 0 0 0 0 0 0 0 0 0 0 0 0 0 0 0 0 0 0 0 0 0 0 0 0 0 0 0 0 0 0 0 0 0 0 0 0 0 0 0 0 0 0 0 0 0 0 0 0 0 0 0 0 0 0 0 0 0 0 0 0 0 0 0 0 0 0 0 0 0 0 0 0 0 0 0 0 0 0 0 0 0 0 0 0 0 0 0 0 0 0 0 0 0 0 0 0 0 0 0 0 0 0 0 0 0 0 0 0 0 0 0 0 0 0 0 0 0 0 0 0 0 0 0 0 0 0 0 0 0 0 0 0 0 0 0 0 0 0 0 0 0 0 0 0 0 0 0 0 0 0 0 0 0 0 0 0 0 0 0 0 0 0 0 0 0 0 0 0 0 0 0 0 0 0 0 0 0 0 0 0 0 0 0 0 0 0 0 0 0 0 0 0 0 0 0 0 0 0 0 0 0 0 0 0 0 0 0 0 0 0 0 0 0 0 0 0 0 0 0 0 0 0 0 0 0 0 0 0 0 0 0 0 0 0 0 0 0 0 0 0 0 0 0 0 0 0 0 0 0 0 0 0 0 0 0 0 0 0 0 0 0 0 0 0 0 0 0 0 0 0 0 0 0 0 0 0 0 0 0 0 0 0 0 0 0 0 0 0 0 0 0 0 0 0 0 0 0 0 0 0 0 0 0 0 0 0 0 0 0 0 0 0 0 0 0 0 0 0 0 0 0 0 0 0 0 0 0 0 0 0 0 0 0 0 0 0 0 0 0 0 0 0 0 0 0 0 0 0 0 0 0 0 0 0 0 0 0 0 0 0 0 0 0 
</DataArray>
<DataArray Name="HRRPUV" NumberOfComponents="1" type="UInt8" format="ascii">