<?xml version="1.0"?>
<VTKFile type="ImageData" version="1.0" byte_order="LittleEndian" header_type="UInt64">
<ImageData WholeExtent="25 50 0 25 0 15"
 Origin="15.0000 0.0000 0.0000" Spacing="0.6000 0.6000 0.6000">
<Piece Extent="25 50 0 25 0 15">
<PointData>
<DataArray Name="TEMPERATURE" NumberOfComponents="1" type="Float32" format="ascii">
20.0 20.0 20.0 20.0 20.0 20.0 20.0 20.0 20.0 20.1 20.1 20.0 20.0 20.0 20.0 20.0 20.1 20.1 20.1 20.1 20.1 20.1 20.1 20.1 20.1 20.1 20.1 20.1 20.1 20.1 20.1 20.1 20.1 20.1 20.1 20.1 20.1 20.1 20.1 20.1 20.1 20.1 20.1 20.1 20.1 20.1 20.1 20.1 20.1 20.1 20.1 20.1 20.2 20.2 20.2 20.2 20.2 20.2 20.2 20.2 20.2 20.3 20.2 20.2 20.2 20.2 20.2 20.2 20.2 20.2 20.2 20.2 20.2 20.2 20.2 20.2 20.1 20.1 20.3 20.3 20.3 20.4 20.4 20.4 20.4 20.4 20.4 20.4 20.4 20.4 20.3 20.3 20.3 20.3 20.3 20.3 20.3 20.3 20.2 20.2 20.2 20.2 20.1 20.1 20.4 20.4 20.5 20.5 20.5 20.5 20.5 20.5 20.6 20.6 20.5 20.5 20.4 20.4 20.4 20.4 20.4 20.3 20.3 20.3 20.3 20.2 20.2 20.2 20.1 20.1 20.5 20.5 20.6 20.6 20.7 20.7 20.7 20.7 20.7 20.7 20.7 20.6 20.5 20.5 20.5 20.4 20.4 20.4 20.4 20.3 20.3 20.3 20.2 20.2 20.1 20.1 20.5 20.6 20.7 20.8 20.8 20.8 20.8 20.8 20.9 20.8 20.7 20.7 20.6 20.6 20.5 20.5 20.5 20.4 20.4 20.4 20.3 20.3 20.3 20.2 20.1 20.1 20.6 20.7 20.8 20.9 20.9 20.9 21.0 21.0 21.0 20.9 20.8 20.7 20.7 20.7 20.6 20.6 20.5 20.5 20.4 20.4 20.4 20.3 20.3 20.2 20.1 20.1 20.7 20.8 20.9 21.0 21.1 21.1 21.1 21.2 21.2 21.1 20.9 20.9 20.8 20.8 20.7 20.7 20.6 20.5 20.5 20.4 20.4 20.4 20.3 20.2 20.1 20.1 20.8 20.9 21.0 21.1 21.3 21.3 21.4 21.4 21.3 21.2 21.1 21.0 20.9 20.9 20.8 20.7 20.7 20.6 20.5 20.5 20.5 20.4 20.3 20.2 20.1 20.1 20.9 21.0 21.2 21.3 21.4 21.5 21.6 21.6 21.5 21.4 21.2 21.1 21.1 21.0 20.9 20.8 20.8 20.7 20.6 20.6 20.5 20.4 20.4 20.3 20.1 20.1 21.1 21.2 21.4 21.5 21.7 21.9 21.9 21.9 21.8 21.6 21.4 21.3 21.2 21.1 21.0 20.9 20.8 20.8 20.7 20.6 20.6 20.5 20.4 20.3 20.1 20.1 21.2 21.4 21.6 21.8 22.0 22.2 22.3 22.3 22.1 21.8 21.7 21.5 21.4 21.3 21.2 21.0 20.9 20.8 20.8 20.7 20.6 20.5 20.4 20.3 20.1 20.1 21.4 21.6 21.8 22.0 22.3 22.6 22.7 22.7 22.4 22.1 21.9 21.7 21.6 21.4 21.3 21.2 21.0 20.9 20.8 20.7 20.6 20.5 20.4 20.3 20.1 20.1 21.6 21.8 22.1 22.4 22.7 23.1 23.3 23.2 22.8 22.5 22.2 22.0 21.8 21.6 21.5 21.3 21.1 21.0 20.9 20.8 20.7 20.6 20.4 20.2 20.1 20.1 21.8 22.1 22.4 22.8 23.2 23.7 24.1 23.9 23.3 22.9 22.6 22.3 22.1 21.8 21.6 21.4 21.3 21.1 21.0 20.8 20.7 20.6 20.4 20.2 20.1 20.1 22.1 22.4 22.8 23.3 23.7 24.4 24.9 24.7 23.9 23.4 23.0 22.7 22.3 22.0 21.8 21.6 21.4 21.2 21.0 20.9 20.8 20.6 20.4 20.3 20.1 20.1 22.4 22.8 23.2 23.8 24.3 25.2 26.1 25.6 24.6 23.9 23.5 23.0 22.6 22.3 22.0 21.7 21.5 21.3 21.1 21.0 20.9 20.7 20.5 20.3 20.1 20.1 22.8 23.3 23.9 24.7 25.7 27.6 29.2 28.2 25.9 24.7 24.1 23.5 23.0 22.6 22.2 21.9 21.7 21.5 21.3 21.1 21.0 20.7 20.5 20.3 20.1 20.1 23.4 24.0 25.1 27.0 30.5 42.1 49.4 41.2 30.7 26.1 25.0 24.1 23.5 23.0 22.5 22.2 21.9 21.6 21.4 21.2 21.0 20.8 20.5 20.3 20.1 20.1 24.4 25.1 26.2 28.8 33.2 54.8 67.1 47.8 34.6 28.0 26.3 25.0 24.1 23.5 22.9 22.4 22.1 21.8 21.5 21.3 21.0 20.8 20.5 20.3 20.1 20.1 25.0 25.8 26.7 29.4 31.4 20.0 20.0 40.3 35.4 29.1 26.9 25.5 24.5 23.7 23.1 22.6 22.2 21.8 21.5 21.2 21.0 20.7 20.5 20.3 20.1 20.1 24.7 25.8 26.7 29.3 31.5 20.0 20.0 40.7 35.1 28.2 26.2 25.3 24.3 23.5 23.1 22.5 22.1 21.8 21.5 21.2 21.0 20.7 20.5 20.3 20.1 20.1 23.8 24.7 25.5 28.4 30.8 31.6 32.0 33.6 30.9 26.5 25.3 24.7 23.9 23.1 22.7 22.3 22.0 21.7 21.5 21.3 21.0 20.8 20.5 20.3 20.1 20.1 23.0 23.5 24.2 26.4 28.4 29.5 29.5 28.2 26.6 25.3 24.4 23.8 23.2 22.6 22.3 22.0 21.7 21.5 21.4 21.2 21.0 20.8 20.5 20.3 20.1 20.1 22.1 23.1 23.6 24.5 25.7 26.7 26.5 25.5 24.7 24.0 23.5 23.0 22.6 22.2 21.9 21.7 21.5 21.3 21.1 21.0 20.9 20.7 20.5 20.3 20.1 20.1 20.0 20.0 20.0 20.0 20.0 20.0 20.0 20.0 20.0 20.1 20.1 20.0 20.0 20.0 20.0 20.0 20.0 20.1 20.1 20.1 20.1 20.1 20.1 20.1 20.1 20.1 20.1 20.1 20.1 20.1 20.1 20.1 20.1 20.1 20.1 20.1 20.1 20.1 20.1 20.1 20.1 20.1 20.1 20.1 20.1 20.1 20.1 20.1 20.1 20.1 20.1 20.1 20.2 20.2 20.2 20.2 20.2 20.2 20.2 20.2 20.2 20.2 20.2 20.2 20.2 20.2 20.2 20.2 20.2 20.2 20.2 20.2 20.2 20.2 20.2 20.1 20.1 20.1 20.3 20.3 20.3 20.3 20.4 20.4 20.3 20.4 20.4 20.4 20.4 20.3 20.3 20.3 20.3 20.3 20.3 20.3 20.2 20.2 20.2 20.2 20.2 20.2 20.1 20.1 20.4 20.4 20.4 20.5 20.5 20.5 20.5 20.5 20.6 20.6 20.5 20.5 20.4 20.4 20.4 20.4 20.3 20.3 20.3 20.3 20.2 20.2 20.2 20.2 20.1 20.1 20.4 20.5 20.6 20.6 20.6 20.6 20.6 20.7 20.7 20.7 20.6 20.5 20.5 20.5 20.4 20.4 20.4 20.4 20.3 20.3 20.3 20.2 20.2 20.2 20.1 20.1 20.5 20.6 20.6 20.7 20.8 20.8 20.8 20.8 20.8 20.8 20.7 20.6 20.6 20.5 20.5 20.5 20.4 20.4 20.4 20.3 20.3 20.3 20.2 20.2 20.1 20.1 20.6 20.7 20.7 20.8 20.9 20.9 20.9 21.0 21.0 20.9 20.8 20.7 20.7 20.6 20.6 20.5 20.5 20.4 20.4 20.4 20.3 20.3 20.3 20.2 20.1 20.1 20.7 20.8 20.9 21.0 21.1 21.1 21.1 21.2 21.1 21.0 20.9 20.8 20.8 20.7 20.7 20.6 20.6 20.5 20.5 20.4 20.4 20.3 20.3 20.2 20.1 20.1 20.8 20.9 21.0 21.1 21.2 21.3 21.4 21.4 21.3 21.2 21.1 21.0 20.9 20.8 20.8 20.7 20.6 20.6 20.5 20.5 20.4 20.4 20.3 20.2 20.1 20.1 20.9 21.0 21.2 21.3 21.5 21.6 21.7 21.7 21.6 21.4 21.2 21.1 21.0 21.0 20.9 20.8 20.7 20.6 20.6 20.5 20.5 20.4 20.3 20.2 20.1 20.1 21.0 21.2 21.4 21.6 21.7 21.9 22.0 22.0 21.8 21.6 21.5 21.3 21.2 21.1 21.0 20.9 20.8 20.7 20.6 20.6 20.5 20.5 20.4 20.2 20.1 20.1 21.2 21.4 21.6 21.8 22.0 22.3 22.5 22.4 22.2 21.9 21.7 21.5 21.4 21.3 21.1 21.0 20.9 20.8 20.7 20.6 20.6 20.5 20.4 20.2 20.1 20.1 21.4 21.6 21.9 22.2 22.5 22.8 22.9 22.9 22.6 22.2 22.0 21.8 21.6 21.5 21.3 21.2 21.0 20.9 20.8 20.7 20.6 20.5 20.4 20.2 20.1 20.1 21.6 21.9 22.2 22.6 23.0 23.3 23.6 23.5 23.0 22.6 22.3 22.1 21.9 21.7 21.5 21.3 21.1 21.0 20.9 20.8 20.7 20.5 20.4 20.2 20.1 20.1 21.9 22.2 22.6 23.1 23.5 24.0 24.5 24.3 23.6 23.1 22.7 22.4 22.1 21.9 21.6 21.4 21.2 21.1 20.9 20.8 20.7 20.6 20.4 20.2 20.1 20.1 22.2 22.6 23.1 23.7 24.2 25.1 26.0 25.8 24.7 23.7 23.2 22.8 22.5 22.1 21.8 21.6 21.4 21.2 21.0 20.9 20.7 20.6 20.4 20.2 20.1 20.1 22.6 23.0 23.6 24.3 24.9 26.3 27.6 27.7 26.3 24.5 23.8 23.3 22.8 22.4 22.0 21.8 21.5 21.3 21.1 21.0 20.8 20.7 20.5 20.3 20.1 20.1 23.0 23.5 24.4 25.7 27.0 29.3 30.9 30.2 27.9 25.4 24.4 23.8 23.2 22.7 22.3 22.0 21.7 21.5 21.3 21.1 20.9 20.7 20.5 20.3 20.1 20.1 23.6 24.5 27.4 33.3 38.0 56.2 59.1 40.1 31.5 26.7 25.4 24.5 23.8 23.2 22.7 22.3 21.9 21.7 21.4 21.2 21.0 20.8 20.5 20.3 20.1 20.1 24.8 25.9 28.9 37.3 70.2 166.3 154.5 59.1 35.9 28.9 26.8 25.4 24.5 23.7 23.1 22.6 22.2 21.8 21.5 21.3 21.0 20.8 20.5 20.3 20.1 20.1 25.5 26.5 27.9 35.2 102.2 352.3 358.6 109.3 39.5 30.8 27.6 26.1 24.9 24.0 23.3 22.7 22.3 21.9 21.5 21.3 21.0 20.7 20.5 20.3 20.1 20.1 24.9 26.1 28.2 36.0 86.1 256.1 331.0 141.1 41.0 29.9 26.9 25.7 24.6 23.8 23.2 22.7 22.2 21.8 21.5 21.2 21.0 20.7 20.5 20.3 20.1 20.1 24.1 24.9 27.1 34.1 49.8 73.2 105.6 78.3 34.6 27.5 25.7 24.8 24.0 23.3 22.8 22.4 22.0 21.8 21.5 21.3 21.0 20.8 20.5 20.3 20.1 20.1 23.3 23.9 25.2 28.8 31.6 33.0 33.8 30.8 27.3 25.7 24.7 24.0 23.3 22.7 22.4 22.1 21.8 21.6 21.4 21.2 21.0 20.7 20.5 20.3 20.1 20.1 22.3 23.5 24.2 25.3 26.5 27.5 27.5 26.3 25.2 24.5 23.9 23.3 22.8 22.4 22.0 21.7 21.5 21.3 21.1 21.0 20.8 20.7 20.5 20.3 20.1 20.1 20.0 20.0 20.0 20.0 20.0 20.0 20.0 20.0 20.0 20.0 20.0 20.0 20.0 20.0 20.0 20.0 20.0 20.0 20.1 20.1 20.1 20.1 20.1 20.1 20.1 20.1 20.1 20.1 20.1 20.1 20.1 20.1 20.1 20.1 20.1 20.1 20.1 20.1 20.1 20.1 20.1 20.1 20.1 20.1 20.1 20.1 20.1 20.1 20.1 20.1 20.1 20.1 20.1 20.2 20.2 20.2 20.2 20.2 20.2 20.2 20.2 20.2 20.2 20.2 20.2 20.2 20.2 20.2 20.2 20.2 20.2 20.1 20.1 20.1 20.1 20.1 20.1 20.1 20.2 20.3 20.3 20.3 20.3 20.3 20.3 20.3 20.4 20.4 20.3 20.3 20.3 20.3 20.3 20.2 20.2 20.2 20.2 20.2 20.2 20.1 20.1 20.1 20.1 20.1 20.3 20.4 20.4 20.4 20.5 20.5 20.5 20.5 20.5 20.5 20.5 20.4 20.4 20.3 20.3 20.3 20.3 20.3 20.2 20.2 20.2 20.2 20.2 20.1 20.1 20.1 20.4 20.4 20.5 20.6 20.6 20.6 20.6 20.6 20.7 20.6 20.6 20.5 20.4 20.4 20.4 20.3 20.3 20.3 20.3 20.2 20.2 20.2 20.2 20.1 20.1 20.1 20.5 20.5 20.6 20.7 20.7 20.7 20.8 20.8 20.8 20.7 20.6 20.6 20.5 20.5 20.4 20.4 20.4 20.3 20.3 20.3 20.2 20.2 20.2 20.2 20.1 20.1 20.5 20.6 20.7 20.8 20.9 20.9 20.9 21.0 20.9 20.9 20.8 20.7 20.6 20.6 20.5 20.5 20.4 20.4 20.3 20.3 20.3 20.2 20.2 20.2 20.1 20.1 20.6 20.7 20.8 20.9 21.0 21.1 21.1 21.2 21.1 21.0 20.9 20.8 20.7 20.7 20.6 20.5 20.5 20.4 20.4 20.3 20.3 20.3 20.2 20.2 20.1 20.1 20.7 20.9 21.0 21.1 21.2 21.3 21.4 21.4 21.3 21.2 21.0 20.9 20.8 20.8 20.7 20.6 20.6 20.5 20.4 20.4 20.3 20.3 20.3 20.2 20.1 20.0 20.9 21.0 21.2 21.3 21.5 21.6 21.7 21.7 21.6 21.4 21.2 21.1 21.0 20.9 20.8 20.7 20.7 20.6 20.5 20.4 20.4 20.3 20.3 20.2 20.1 20.0 21.0 21.2 21.4 21.6 21.8 22.0 22.2 22.1 21.9 21.7 21.5 21.3 21.2 21.1 21.0 20.8 20.7 20.7 20.6 20.5 20.4 20.4 20.3 20.2 20.1 20.0 21.2 21.4 21.7 21.9 22.2 22.5 22.7 22.6 22.3 22.0 21.8 21.6 21.4 21.3 21.1 21.0 20.9 20.7 20.6 20.6 20.5 20.4 20.3 20.2 20.1 20.0 21.4 21.7 22.0 22.3 22.7 23.1 23.3 23.2 22.8 22.4 22.1 21.9 21.7 21.5 21.3 21.1 21.0 20.8 20.7 20.6 20.5 20.5 20.3 20.2 20.1 20.0 21.7 22.0 22.4 22.9 23.4 23.8 24.2 24.0 23.4 22.9 22.5 22.2 22.0 21.7 21.5 21.3 21.1 20.9 20.8 20.7 20.6 20.5 20.4 20.2 20.1 20.0 22.0 22.4 22.9 23.5 24.2 25.0 26.3 25.9 24.3 23.6 23.0 22.7 22.3 22.0 21.7 21.5 21.2 21.0 20.9 20.8 20.6 20.5 20.4 20.2 20.1 20.0 22.4 22.8 23.5 24.3 25.1 27.7 33.9 34.1 27.5 24.4 23.7 23.1 22.7 22.3 21.9 21.6 21.4 21.2 21.0 20.8 20.7 20.5 20.4 20.2 20.1 20.1 22.8 23.5 24.5 26.0 27.3 32.5 40.5 43.0 36.3 27.6 24.5 23.7 23.1 22.6 22.2 21.8 21.5 21.3 21.1 20.9 20.8 20.6 20.4 20.3 20.1 20.1 23.3 24.2 25.7 29.2 33.0 39.4 43.4 46.5 42.1 29.9 25.4 24.4 23.6 23.0 22.5 22.1 21.8 21.5 21.3 21.1 20.9 20.7 20.5 20.3 20.1 20.1 24.0 25.1 29.3 46.0 63.3 87.9 85.9 64.1 49.2 30.3 26.5 25.3 24.3 23.6 22.9 22.4 22.0 21.7 21.4 21.2 21.0 20.7 20.5 20.3 20.1 20.1 25.5 27.0 32.7 65.2 147.5 260.2 241.5 128.8 65.1 33.3 28.2 26.4 25.2 24.2 23.4 22.8 22.3 21.9 21.5 21.3 21.0 20.8 20.5 20.3 20.1 20.1 26.3 28.3 32.9 65.3 205.1 400.7 403.0 216.2 76.2 35.5 29.4 27.2 25.8 24.6 23.7 23.0 22.4 22.0 21.6 21.3 21.0 20.7 20.5 20.3 20.1 20.1 25.9 27.9 32.7 61.4 172.5 310.9 363.3 242.3 80.6 34.8 28.6 26.7 25.3 24.3 23.6 22.9 22.4 21.9 21.6 21.3 21.0 20.7 20.5 20.3 20.1 20.1 24.8 26.4 31.4 55.4 101.6 144.3 183.0 146.2 60.4 30.8 26.8 25.5 24.5 23.7 23.1 22.6 22.2 21.8 21.5 21.2 21.0 20.7 20.5 20.3 20.1 20.1 23.7 25.3 28.5 38.9 47.1 56.4 60.6 47.1 33.2 26.9 25.5 24.5 23.7 23.1 22.6 22.2 21.9 21.6 21.3 21.1 20.9 20.7 20.5 20.3 20.1 20.1 22.6 24.5 25.8 27.5 29.2 30.0 30.3 29.0 26.8 25.4 24.5 23.8 23.1 22.6 22.2 21.8 21.5 21.3 21.1 21.0 20.8 20.6 20.4 20.2 20.1 20.1 20.0 20.0 20.0 20.0 20.0 20.0 20.0 20.0 20.0 20.0 20.0 20.0 20.0 20.0 20.0 20.0 20.0 20.0 20.0 20.1 20.1 20.1 20.1 20.1 20.1 20.1 20.1 20.1 20.1 20.1 20.1 20.1 20.1 20.1 20.1 20.1 20.1 20.1 20.1 20.1 20.1 20.1 20.1 20.1 20.1 20.1 20.1 20.1 20.1 20.1 20.1 20.1 20.1 20.2 20.2 20.2 20.2 20.2 20.2 20.2 20.2 20.2 20.2 20.2 20.2 20.2 20.2 20.2 20.2 20.2 20.1 20.1 20.1 20.1 20.1 20.1 20.1 20.1 20.2 20.3 20.3 20.3 20.3 20.3 20.3 20.4 20.4 20.4 20.3 20.3 20.3 20.3 20.2 20.2 20.2 20.2 20.2 20.2 20.2 20.1 20.1 20.1 20.1 20.1 20.3 20.4 20.4 20.5 20.5 20.5 20.5 20.5 20.5 20.5 20.5 20.4 20.4 20.3 20.3 20.3 20.3 20.2 20.2 20.2 20.2 20.2 20.1 20.1 20.1 20.1 20.4 20.4 20.5 20.6 20.6 20.6 20.6 20.7 20.7 20.6 20.6 20.5 20.4 20.4 20.4 20.3 20.3 20.3 20.3 20.2 20.2 20.2 20.2 20.1 20.1 20.1 20.5 20.5 20.6 20.7 20.7 20.7 20.8 20.8 20.8 20.7 20.6 20.6 20.5 20.5 20.4 20.4 20.4 20.3 20.3 20.3 20.2 20.2 20.2 20.1 20.1 20.1 20.5 20.6 20.7 20.8 20.9 20.9 20.9 21.0 21.0 20.9 20.8 20.7 20.6 20.6 20.5 20.5 20.4 20.4 20.3 20.3 20.3 20.2 20.2 20.2 20.1 20.1 20.6 20.7 20.8 21.0 21.0 21.1 21.2 21.2 21.2 21.0 20.9 20.8 20.7 20.7 20.6 20.5 20.5 20.4 20.4 20.3 20.3 20.3 20.2 20.2 20.1 20.1 20.8 20.9 21.0 21.1 21.3 21.4 21.4 21.5 21.4 21.2 21.1 20.9 20.9 20.8 20.7 20.6 20.6 20.5 20.4 20.4 20.3 20.3 20.2 20.2 20.1 20.0 20.9 21.0 21.2 21.4 21.5 21.7 21.8 21.8 21.7 21.5 21.3 21.1 21.0 20.9 20.8 20.7 20.6 20.6 20.5 20.4 20.4 20.3 20.3 20.2 20.1 20.0 21.0 21.2 21.4 21.7 21.9 22.1 22.2 22.2 22.0 21.7 21.5 21.3 21.2 21.1 21.0 20.9 20.8 20.7 20.6 20.5 20.4 20.4 20.3 20.2 20.1 20.0 21.2 21.4 21.7 22.0 22.3 22.5 22.8 22.8 22.4 22.1 21.8 21.6 21.4 21.3 21.1 21.0 20.9 20.7 20.6 20.6 20.5 20.4 20.3 20.2 20.1 20.0 21.4 21.7 22.0 22.4 22.8 23.1 23.5 23.4 23.0 22.5 22.2 21.9 21.7 21.5 21.3 21.1 21.0 20.8 20.7 20.6 20.5 20.4 20.3 20.2 20.1 20.0 21.7 22.1 22.5 23.0 23.5 24.0 24.4 24.3 23.7 23.1 22.7 22.3 22.0 21.8 21.5 21.3 21.1 21.0 20.8 20.7 20.6 20.5 20.4 20.2 20.1 20.0 22.0 22.5 23.1 23.6 24.3 25.3 27.0 26.7 24.8 23.8 23.2 22.8 22.4 22.1 21.8 21.5 21.3 21.1 20.9 20.7 20.6 20.5 20.4 20.2 20.1 20.0 22.4 23.0 24.3 25.1 26.0 31.2 41.6 39.9 28.8 24.8 23.9 23.4 22.9 22.4 22.0 21.7 21.4 21.2 21.0 20.8 20.7 20.5 20.4 20.2 20.1 20.1 22.9 24.0 26.3 27.9 29.3 47.0 68.3 64.7 44.8 29.4 24.9 24.0 23.3 22.8 22.3 21.9 21.6 21.3 21.1 20.9 20.8 20.6 20.4 20.3 20.1 20.1 23.4 25.5 28.8 32.0 36.7 64.2 87.8 87.2 63.9 34.0 26.3 24.8 24.0 23.3 22.7 22.2 21.8 21.5 21.3 21.1 20.9 20.7 20.5 20.3 20.1 20.1 24.3 26.8 33.7 48.9 74.3 125.2 151.7 138.7 89.4 36.7 28.1 26.0 24.8 23.9 23.2 22.6 22.1 21.8 21.5 21.2 21.0 20.8 20.5 20.3 20.1 20.1 26.4 29.1 44.2 99.1 202.4 306.7 325.3 255.8 132.9 44.9 31.3 27.5 25.9 24.7 23.7 23.0 22.4 22.0 21.6 21.3 21.0 20.8 20.5 20.3 20.1 20.1 28.4 32.4 52.1 135.2 304.5 442.6 455.8 342.3 155.1 47.9 32.7 28.4 26.5 25.1 24.1 23.3 22.6 22.0 21.6 21.3 21.0 20.8 20.5 20.3 20.1 20.1 29.4 35.1 55.6 129.0 263.8 376.8 414.1 337.4 160.6 48.4 30.6 27.8 26.1 24.8 23.9 23.1 22.5 22.0 21.6 21.3 21.0 20.8 20.5 20.3 20.1 20.1 27.4 33.1 52.2 96.6 150.2 209.3 250.8 215.4 112.3 40.7 28.1 26.3 25.0 24.2 23.4 22.8 22.3 21.9 21.5 21.3 21.0 20.8 20.5 20.3 20.1 20.1 24.3 27.8 38.2 52.8 59.8 76.7 91.9 73.3 42.9 28.0 26.1 25.0 24.1 23.4 22.8 22.4 22.0 21.6 21.4 21.2 20.9 20.7 20.5 20.3 20.1 20.1 22.8 24.9 27.7 30.7 32.0 32.6 34.1 32.4 28.3 26.1 24.9 24.1 23.4 22.8 22.3 21.9 21.6 21.4 21.1 21.0 20.8 20.6 20.4 20.2 20.1 20.0 20.0 20.0 20.0 20.0 20.0 20.0 20.0 20.0 20.0 20.1 20.0 20.0 20.0 20.0 20.0 20.0 20.1 20.1 20.1 20.1 20.1 20.1 20.1 20.1 20.1 20.1 20.1 20.1 20.1 20.1 20.1 20.1 20.1 20.1 20.1 20.1 20.1 20.1 20.1 20.1 20.1 20.1 20.1 20.1 20.1 20.1 20.1 20.1 20.1 20.1 20.1 20.1 20.2 20.2 20.2 20.2 20.2 20.2 20.2 20.2 20.3 20.3 20.2 20.2 20.2 20.2 20.2 20.2 20.2 20.2 20.2 20.2 20.1 20.1 20.1 20.1 20.1 20.1 20.3 20.3 20.3 20.4 20.4 20.4 20.4 20.4 20.4 20.4 20.4 20.3 20.3 20.3 20.3 20.3 20.3 20.2 20.2 20.2 20.2 20.2 20.1 20.1 20.1 20.1 20.4 20.4 20.5 20.5 20.5 20.5 20.5 20.6 20.6 20.6 20.5 20.4 20.4 20.4 20.4 20.3 20.3 20.3 20.3 20.2 20.2 20.2 20.2 20.1 20.1 20.1 20.4 20.5 20.6 20.6 20.6 20.6 20.7 20.7 20.7 20.7 20.6 20.5 20.5 20.4 20.4 20.4 20.4 20.3 20.3 20.3 20.2 20.2 20.2 20.2 20.1 20.1 20.5 20.6 20.7 20.7 20.8 20.8 20.8 20.9 20.9 20.8 20.7 20.6 20.5 20.5 20.5 20.4 20.4 20.4 20.3 20.3 20.3 20.2 20.2 20.2 20.1 20.1 20.6 20.7 20.8 20.9 20.9 20.9 21.0 21.0 21.0 20.9 20.8 20.7 20.6 20.6 20.6 20.5 20.5 20.4 20.4 20.3 20.3 20.3 20.2 20.2 20.1 20.1 20.7 20.8 20.9 21.0 21.1 21.1 21.2 21.3 21.2 21.1 20.9 20.8 20.8 20.7 20.7 20.6 20.5 20.5 20.4 20.4 20.3 20.3 20.3 20.2 20.1 20.1 20.8 20.9 21.0 21.2 21.3 21.4 21.5 21.5 21.5 21.3 21.1 21.0 20.9 20.8 20.8 20.7 20.6 20.5 20.5 20.4 20.4 20.3 20.3 20.2 20.1 20.1 20.9 21.1 21.2 21.4 21.5 21.6 21.8 21.9 21.7 21.5 21.3 21.2 21.1 21.0 20.9 20.8 20.7 20.6 20.6 20.5 20.4 20.4 20.3 20.2 20.1 20.1 21.0 21.2 21.4 21.6 21.8 22.0 22.2 22.3 22.1 21.8 21.5 21.4 21.3 21.1 21.0 20.9 20.8 20.7 20.6 20.5 20.5 20.4 20.3 20.2 20.1 20.1 21.2 21.4 21.7 21.9 22.2 22.4 22.7 22.8 22.5 22.1 21.8 21.6 21.5 21.3 21.2 21.1 20.9 20.8 20.7 20.6 20.5 20.5 20.4 20.2 20.1 20.1 21.4 21.7 22.0 22.3 22.6 22.9 23.4 23.5 23.0 22.5 22.2 22.0 21.8 21.6 21.4 21.2 21.1 20.9 20.8 20.7 20.6 20.5 20.4 20.2 20.1 20.1 21.6 22.0 22.4 22.8 23.2 23.7 24.3 24.3 23.7 23.1 22.7 22.4 22.1 21.8 21.6 21.4 21.2 21.0 20.9 20.7 20.6 20.5 20.4 20.2 20.1 20.1 21.9 22.7 23.2 23.4 23.9 24.8 26.0 26.0 24.8 23.8 23.2 22.8 22.5 22.1 21.8 21.6 21.3 21.1 21.0 20.8 20.7 20.6 20.4 20.3 20.1 20.1 22.6 23.8 25.1 25.3 26.5 32.5 38.5 34.5 27.2 24.8 24.0 23.4 22.9 22.5 22.1 21.8 21.5 21.3 21.1 20.9 20.7 20.6 20.4 20.3 20.1 20.1 23.7 25.2 27.6 28.2 28.3 48.8 69.7 60.8 40.7 27.9 25.0 24.1 23.4 22.8 22.4 22.0 21.7 21.4 21.2 21.0 20.8 20.7 20.5 20.3 20.1 20.1 24.4 27.7 31.4 31.7 30.6 68.3 106.7 102.4 70.1 35.0 26.7 24.9 24.0 23.3 22.7 22.3 21.9 21.6 21.4 21.1 21.0 20.8 20.6 20.3 20.1 20.1 25.8 31.1 38.9 44.3 50.3 123.9 193.1 179.3 109.2 42.4 29.4 26.2 24.9 24.0 23.3 22.7 22.2 21.8 21.5 21.3 21.1 20.8 20.6 20.3 20.1 20.1 28.6 36.3 66.4 121.0 146.7 248.6 355.1 306.1 162.4 52.8 33.5 27.9 26.1 24.8 23.8 23.1 22.5 22.0 21.7 21.4 21.1 20.8 20.6 20.3 20.1 20.1 31.9 47.7 103.4 205.8 239.5 332.0 450.0 377.2 186.5 53.5 34.3 28.9 26.9 25.3 24.2 23.4 22.6 22.1 21.7 21.4 21.1 20.8 20.6 20.3 20.1 20.1 37.4 64.1 121.1 204.9 215.4 290.1 398.5 351.8 185.9 50.0 31.3 28.3 26.4 25.1 24.1 23.2 22.6 22.1 21.7 21.4 21.1 20.8 20.6 20.3 20.1 20.1 36.4 61.3 99.6 136.3 135.1 183.0 243.0 219.2 125.5 41.2 28.5 26.7 25.2 24.4 23.6 22.9 22.4 22.0 21.6 21.3 21.1 20.8 20.6 20.3 20.1 20.1 28.5 39.1 54.6 64.0 68.3 83.0 91.2 72.9 43.6 28.0 26.2 25.1 24.2 23.5 22.9 22.4 22.1 21.7 21.5 21.2 21.0 20.8 20.6 20.3 20.1 20.1 23.6 26.2 29.9 34.4 37.4 37.5 35.8 32.3 28.3 26.1 24.9 24.1 23.4 22.9 22.4 22.0 21.7 21.4 21.2 21.0 20.9 20.7 20.5 20.3 20.1 20.1 20.0 20.0 20.0 20.0 20.0 20.0 20.0 20.0 20.1 20.1 20.1 20.1 20.1 20.1 20.1 20.1 20.1 20.1 20.1 20.1 20.1 20.1 20.1 20.1 20.1 20.1 20.1 20.1 20.1 20.1 20.1 20.1 20.1 20.1 20.1 20.1 20.1 20.1 20.1 20.1 20.1 20.1 20.1 20.1 20.1 20.1 20.1 20.1 20.1 20.1 20.1 20.1 20.2 20.2 20.2 20.2 20.2 20.2 20.2 20.3 20.3 20.3 20.3 20.3 20.2 20.2 20.2 20.2 20.2 20.2 20.2 20.2 20.2 20.2 20.2 20.1 20.1 20.1 20.3 20.3 20.4 20.4 20.4 20.4 20.4 20.4 20.5 20.5 20.4 20.4 20.4 20.3 20.3 20.3 20.3 20.3 20.3 20.2 20.2 20.2 20.2 20.2 20.1 20.1 20.4 20.5 20.5 20.5 20.5 20.5 20.6 20.6 20.6 20.6 20.6 20.5 20.4 20.4 20.4 20.4 20.4 20.3 20.3 20.3 20.2 20.2 20.2 20.2 20.1 20.1 20.5 20.5 20.6 20.7 20.7 20.7 20.7 20.7 20.8 20.7 20.7 20.6 20.5 20.5 20.5 20.4 20.4 20.4 20.3 20.3 20.3 20.3 20.2 20.2 20.1 20.1 20.5 20.6 20.7 20.7 20.8 20.8 20.8 20.9 20.9 20.8 20.7 20.6 20.6 20.6 20.5 20.5 20.5 20.4 20.4 20.3 20.3 20.3 20.3 20.2 20.1 20.1 20.6 20.7 20.8 20.9 20.9 20.9 21.0 21.0 21.1 21.0 20.8 20.7 20.7 20.6 20.6 20.6 20.5 20.5 20.4 20.4 20.4 20.3 20.3 20.2 20.1 20.1 20.7 20.8 20.9 21.0 21.0 21.1 21.2 21.3 21.2 21.1 21.0 20.9 20.8 20.7 20.7 20.6 20.6 20.5 20.5 20.4 20.4 20.4 20.3 20.2 20.1 20.1 20.8 20.9 21.0 21.1 21.2 21.3 21.4 21.5 21.4 21.3 21.1 21.0 20.9 20.9 20.8 20.7 20.7 20.6 20.5 20.5 20.4 20.4 20.3 20.3 20.1 20.1 20.9 21.0 21.2 21.3 21.4 21.5 21.7 21.8 21.7 21.5 21.3 21.2 21.1 21.0 20.9 20.8 20.8 20.7 20.6 20.5 20.5 20.4 20.4 20.3 20.1 20.1 21.0 21.2 21.4 21.5 21.7 21.8 22.1 22.2 22.0 21.7 21.5 21.4 21.3 21.2 21.0 20.9 20.8 20.8 20.7 20.6 20.5 20.5 20.4 20.3 20.1 20.1 21.1 21.4 21.6 21.8 21.9 22.2 22.5 22.6 22.4 22.0 21.8 21.6 21.5 21.3 21.2 21.1 21.0 20.9 20.8 20.7 20.6 20.5 20.4 20.3 20.1 20.1 21.3 21.6 21.8 22.1 22.3 22.6 23.1 23.3 22.9 22.4 22.1 21.9 21.7 21.5 21.4 21.2 21.1 21.0 20.8 20.7 20.7 20.6 20.4 20.3 20.1 20.1 21.5 21.9 22.2 22.5 22.8 23.3 23.9 24.0 23.5 22.9 22.5 22.3 22.0 21.8 21.6 21.4 21.2 21.1 20.9 20.8 20.7 20.6 20.5 20.3 20.1 20.1 22.0 22.7 22.9 23.0 23.4 24.3 25.4 25.5 24.5 23.6 23.0 22.7 22.4 22.1 21.8 21.6 21.3 21.2 21.0 20.9 20.7 20.6 20.5 20.3 20.1 20.1 23.9 25.0 25.0 24.8 26.3 30.4 31.9 29.0 26.1 24.6 23.7 23.2 22.8 22.4 22.0 21.7 21.5 21.3 21.1 20.9 20.8 20.7 20.5 20.3 20.1 20.1 27.2 28.4 28.2 26.5 27.8 38.1 45.1 41.5 34.5 27.6 24.7 23.8 23.2 22.7 22.3 22.0 21.7 21.4 21.2 21.1 20.9 20.8 20.6 20.4 20.2 20.1 28.7 31.9 32.3 28.2 37.9 68.3 81.8 80.0 65.5 39.3 27.7 24.7 23.9 23.2 22.7 22.2 21.9 21.6 21.4 21.2 21.0 20.9 20.6 20.4 20.2 20.1 29.9 37.2 40.6 36.6 68.6 145.7 174.8 157.3 109.9 52.7 32.2 26.0 24.7 23.8 23.2 22.6 22.2 21.9 21.6 21.3 21.1 20.9 20.7 20.4 20.2 20.1 39.9 59.4 87.5 95.8 125.7 246.9 318.5 269.6 153.6 59.7 35.7 27.8 25.9 24.6 23.7 23.0 22.5 22.0 21.7 21.4 21.2 20.9 20.7 20.4 20.2 20.1 58.9 98.3 158.7 169.2 160.8 283.1 381.2 311.3 155.8 51.6 34.4 28.8 26.7 25.2 24.1 23.3 22.6 22.1 21.7 21.4 21.1 20.9 20.6 20.4 20.1 20.1 73.0 129.3 186.9 174.4 125.7 203.0 280.9 247.3 133.6 38.6 30.5 28.1 26.3 25.0 24.0 23.2 22.6 22.1 21.7 21.4 21.1 20.9 20.6 20.4 20.2 20.1 69.4 117.6 144.7 129.7 103.1 134.6 151.5 136.4 88.4 32.4 27.9 26.5 25.1 24.2 23.5 22.8 22.4 22.0 21.7 21.4 21.2 20.9 20.7 20.4 20.2 20.1 48.0 68.6 75.2 74.7 85.8 95.4 74.2 49.9 36.4 27.2 25.9 24.9 24.0 23.4 22.9 22.4 22.1 21.8 21.5 21.3 21.1 20.9 20.7 20.4 20.2 20.1 27.9 33.3 36.1 39.0 45.4 46.1 36.8 30.2 27.2 25.5 24.6 23.8 23.2 22.8 22.3 22.0 21.7 21.5 21.3 21.1 21.0 20.8 20.6 20.3 20.1 20.1 20.0 20.0 20.0 20.1 20.1 20.0 20.0 20.1 20.1 20.1 20.1 20.1 20.1 20.1 20.1 20.1 20.1 20.1 20.1 20.1 20.1 20.1 20.1 20.1 20.1 20.1 20.1 20.1 20.1 20.1 20.1 20.1 20.1 20.1 20.1 20.1 20.1 20.1 20.1 20.1 20.1 20.1 20.2 20.2 20.2 20.2 20.2 20.2 20.2 20.1 20.1 20.1 20.2 20.2 20.2 20.2 20.2 20.2 20.2 20.3 20.3 20.3 20.3 20.3 20.3 20.3 20.3 20.3 20.3 20.3 20.3 20.2 20.2 20.2 20.2 20.2 20.1 20.1 20.3 20.4 20.4 20.4 20.4 20.4 20.4 20.4 20.5 20.5 20.5 20.4 20.4 20.4 20.4 20.3 20.3 20.3 20.3 20.3 20.3 20.2 20.2 20.2 20.2 20.1 20.4 20.5 20.5 20.5 20.5 20.5 20.5 20.6 20.7 20.7 20.6 20.5 20.5 20.4 20.4 20.4 20.4 20.4 20.3 20.3 20.3 20.3 20.2 20.2 20.2 20.1 20.5 20.5 20.6 20.6 20.6 20.6 20.7 20.7 20.8 20.7 20.7 20.6 20.5 20.5 20.5 20.4 20.4 20.4 20.4 20.3 20.3 20.3 20.3 20.2 20.2 20.1 20.5 20.6 20.7 20.7 20.7 20.7 20.8 20.8 20.9 20.8 20.7 20.6 20.6 20.6 20.5 20.5 20.5 20.4 20.4 20.4 20.3 20.3 20.3 20.3 20.2 20.1 20.6 20.7 20.7 20.8 20.8 20.9 20.9 21.0 21.0 20.9 20.8 20.7 20.7 20.6 20.6 20.6 20.5 20.5 20.5 20.4 20.4 20.4 20.3 20.3 20.2 20.1 20.6 20.8 20.8 20.9 21.0 21.0 21.1 21.2 21.2 21.1 20.9 20.8 20.8 20.7 20.7 20.6 20.6 20.5 20.5 20.5 20.4 20.4 20.4 20.3 20.2 20.1 20.7 20.8 21.0 21.0 21.1 21.2 21.3 21.4 21.3 21.2 21.1 20.9 20.9 20.8 20.8 20.7 20.7 20.6 20.6 20.5 20.5 20.4 20.4 20.3 20.2 20.1 20.8 21.0 21.1 21.2 21.3 21.4 21.5 21.6 21.5 21.4 21.2 21.1 21.0 21.0 20.9 20.8 20.7 20.7 20.6 20.6 20.5 20.5 20.4 20.3 20.2 20.1 20.9 21.1 21.2 21.3 21.4 21.6 21.8 21.9 21.8 21.6 21.4 21.3 21.2 21.1 21.0 20.9 20.8 20.8 20.7 20.6 20.6 20.5 20.4 20.3 20.2 20.1 21.0 21.2 21.4 21.5 21.7 21.9 22.2 22.4 22.2 21.9 21.6 21.5 21.4 21.3 21.1 21.0 20.9 20.8 20.8 20.7 20.6 20.6 20.5 20.3 20.2 20.1 21.2 21.4 21.6 21.8 22.0 22.3 22.7 22.9 22.6 22.2 21.9 21.8 21.6 21.4 21.3 21.2 21.0 20.9 20.8 20.7 20.7 20.6 20.5 20.3 20.2 20.1 21.4 21.7 21.9 22.1 22.3 22.8 23.4 23.5 23.1 22.6 22.3 22.1 21.9 21.7 21.5 21.3 21.2 21.0 20.9 20.8 20.7 20.6 20.5 20.3 20.2 20.1 22.0 22.5 22.6 22.5 22.9 23.6 24.6 24.8 24.0 23.2 22.8 22.4 22.2 21.9 21.7 21.5 21.3 21.1 21.0 20.9 20.8 20.7 20.5 20.3 20.2 20.1 25.1 25.8 24.7 24.3 25.1 26.9 27.5 26.6 25.5 24.2 23.4 22.9 22.5 22.2 21.9 21.6 21.4 21.2 21.1 20.9 20.8 20.7 20.6 20.4 20.2 20.1 30.1 30.9 27.5 26.2 30.1 32.7 33.0 34.6 33.4 28.0 24.4 23.5 22.9 22.5 22.1 21.8 21.6 21.4 21.2 21.0 20.9 20.8 20.6 20.4 20.2 20.1 32.0 35.0 30.4 44.6 78.8 86.4 73.0 72.7 70.4 48.9 30.0 24.3 23.5 22.9 22.4 22.1 21.8 21.5 21.3 21.2 21.0 20.9 20.7 20.4 20.2 20.1 33.4 40.7 36.6 74.9 161.8 196.6 167.9 150.6 125.5 71.1 36.3 25.7 24.3 23.5 22.9 22.4 22.1 21.8 21.5 21.3 21.1 21.0 20.7 20.4 20.2 20.1 51.0 77.7 75.2 104.5 218.9 294.8 280.2 241.3 159.7 73.0 37.6 27.5 25.4 24.2 23.5 22.8 22.3 21.9 21.6 21.4 21.2 20.9 20.7 20.4 20.2 20.1 89.2 140.9 134.3 112.7 197.0 283.2 279.9 226.6 126.7 54.6 34.3 28.3 26.2 24.8 23.9 23.0 22.4 22.0 21.6 21.3 21.1 20.9 20.7 20.4 20.2 20.1 121.8 181.3 158.5 92.4 116.2 164.5 151.8 127.7 78.4 35.7 29.6 27.6 25.9 24.6 23.8 22.9 22.4 22.0 21.6 21.3 21.1 20.9 20.7 20.4 20.2 20.1 117.4 159.9 138.1 95.7 99.2 107.6 75.2 64.3 53.6 30.3 27.2 26.2 24.8 23.9 23.3 22.7 22.2 21.9 21.6 21.4 21.2 21.0 20.7 20.4 20.2 20.1 74.8 94.7 91.9 84.6 89.9 90.0 58.9 37.4 31.2 26.8 25.3 24.6 23.8 23.1 22.7 22.3 22.0 21.7 21.5 21.3 21.1 21.0 20.7 20.4 20.2 20.1 34.4 43.1 47.1 45.0 44.6 45.7 37.2 30.1 26.4 24.9 24.1 23.5 22.9 22.5 22.2 21.9 21.6 21.4 21.2 21.1 21.0 20.8 20.6 20.4 20.2 20.1 20.0 20.0 20.0 20.0 20.0 20.0 20.0 20.1 20.1 20.1 20.1 20.1 20.1 20.1 20.1 20.1 20.1 20.1 20.1 20.2 20.2 20.2 20.2 20.2 20.1 20.1 20.1 20.1 20.1 20.1 20.1 20.1 20.1 20.1 20.1 20.2 20.2 20.1 20.1 20.1 20.1 20.2 20.2 20.2 20.2 20.2 20.2 20.2 20.2 20.2 20.2 20.1 20.2 20.2 20.2 20.2 20.2 20.2 20.2 20.3 20.3 20.3 20.3 20.3 20.3 20.3 20.3 20.3 20.3 20.3 20.3 20.3 20.2 20.2 20.2 20.2 20.2 20.2 20.3 20.3 20.4 20.4 20.4 20.4 20.4 20.4 20.5 20.5 20.5 20.4 20.4 20.4 20.4 20.3 20.3 20.3 20.3 20.3 20.3 20.2 20.2 20.2 20.2 20.2 20.4 20.4 20.5 20.5 20.5 20.5 20.5 20.6 20.6 20.6 20.6 20.5 20.4 20.4 20.4 20.4 20.4 20.4 20.3 20.3 20.3 20.3 20.3 20.2 20.2 20.2 20.4 20.5 20.6 20.6 20.6 20.6 20.6 20.7 20.7 20.7 20.6 20.5 20.5 20.5 20.4 20.4 20.4 20.4 20.4 20.3 20.3 20.3 20.3 20.3 20.2 20.2 20.5 20.6 20.6 20.6 20.7 20.7 20.7 20.7 20.8 20.8 20.7 20.6 20.5 20.5 20.5 20.5 20.5 20.4 20.4 20.4 20.3 20.3 20.3 20.3 20.2 20.2 20.5 20.6 20.7 20.7 20.8 20.8 20.8 20.9 20.9 20.9 20.8 20.7 20.6 20.6 20.6 20.5 20.5 20.5 20.4 20.4 20.4 20.4 20.3 20.3 20.2 20.1 20.6 20.7 20.8 20.8 20.9 20.9 20.9 21.0 21.0 21.0 20.9 20.8 20.7 20.7 20.6 20.6 20.6 20.5 20.5 20.4 20.4 20.4 20.4 20.3 20.2 20.1 20.7 20.8 20.8 20.9 21.0 21.0 21.1 21.2 21.2 21.1 21.0 20.9 20.8 20.8 20.7 20.7 20.6 20.6 20.5 20.5 20.4 20.4 20.4 20.3 20.2 20.1 20.7 20.8 20.9 21.0 21.1 21.2 21.3 21.4 21.4 21.3 21.1 21.0 20.9 20.9 20.8 20.7 20.7 20.6 20.6 20.5 20.5 20.5 20.4 20.3 20.2 20.1 20.8 21.0 21.0 21.1 21.3 21.4 21.6 21.7 21.6 21.4 21.3 21.1 21.1 21.0 20.9 20.8 20.8 20.7 20.6 20.6 20.5 20.5 20.4 20.4 20.2 20.1 20.9 21.1 21.2 21.3 21.5 21.7 21.9 22.0 21.9 21.7 21.5 21.3 21.2 21.1 21.0 20.9 20.9 20.8 20.7 20.6 20.6 20.5 20.5 20.4 20.2 20.1 21.1 21.2 21.4 21.5 21.7 22.0 22.3 22.5 22.3 22.0 21.7 21.6 21.4 21.3 21.2 21.1 21.0 20.9 20.8 20.7 20.6 20.6 20.5 20.4 20.2 20.1 21.2 21.5 21.6 21.7 22.0 22.4 22.9 23.1 22.8 22.3 22.1 21.8 21.7 21.5 21.3 21.2 21.0 20.9 20.8 20.7 20.7 20.6 20.5 20.3 20.2 20.1 21.7 22.2 22.1 22.0 22.3 23.0 23.8 24.0 23.4 22.8 22.5 22.2 21.9 21.7 21.5 21.3 21.2 21.0 20.9 20.8 20.7 20.6 20.5 20.4 20.2 20.1 24.1 24.9 24.2 23.7 23.8 24.4 25.2 25.9 25.2 23.7 23.0 22.6 22.2 21.9 21.7 21.4 21.3 21.1 21.0 20.8 20.8 20.7 20.5 20.4 20.2 20.1 28.8 28.9 26.1 26.8 28.9 28.1 32.6 43.3 42.1 29.8 24.0 23.1 22.6 22.2 21.9 21.6 21.4 21.2 21.1 21.0 20.9 20.8 20.6 20.4 20.2 20.1 31.8 33.0 38.5 66.4 91.7 78.1 67.7 89.8 97.2 64.7 32.3 23.9 23.1 22.6 22.2 21.9 21.6 21.4 21.2 21.1 21.0 20.9 20.7 20.4 20.2 20.1 34.8 42.1 69.0 140.9 195.5 184.8 160.3 164.0 159.2 100.6 42.7 25.3 23.9 23.1 22.6 22.2 21.9 21.6 21.4 21.2 21.1 20.9 20.7 20.5 20.2 20.1 51.3 74.0 94.3 166.6 228.6 239.0 241.4 223.4 175.2 96.7 42.9 27.0 24.8 23.7 23.1 22.5 22.1 21.7 21.4 21.2 21.1 20.9 20.7 20.4 20.2 20.1 93.2 130.3 105.3 119.2 163.7 172.6 187.1 167.4 119.1 67.5 36.1 27.6 25.4 24.1 23.4 22.7 22.1 21.8 21.5 21.2 21.0 20.8 20.6 20.4 20.2 20.1 134.3 162.8 104.7 73.6 94.4 87.4 81.2 71.9 59.1 43.0 30.1 27.0 25.2 23.9 23.3 22.6 22.1 21.7 21.4 21.2 21.0 20.9 20.6 20.4 20.2 20.1 116.4 128.9 99.3 85.5 92.9 75.6 47.9 40.9 40.6 33.2 27.1 25.7 24.5 23.3 22.9 22.4 22.0 21.7 21.4 21.2 21.1 20.9 20.7 20.4 20.2 20.1 64.3 74.9 78.1 77.6 74.1 64.8 44.0 33.5 29.6 27.1 24.9 24.2 23.5 22.8 22.4 22.1 21.8 21.5 21.3 21.2 21.1 20.9 20.7 20.4 20.2 20.1 32.6 40.1 42.9 39.0 34.5 34.8 32.9 29.3 25.5 24.2 23.6 23.1 22.6 22.3 21.9 21.7 21.5 21.3 21.1 21.0 20.9 20.8 20.6 20.4 20.2 20.1 20.0 20.0 20.0 20.0 20.0 20.0 20.0 20.0 20.1 20.1 20.1 20.1 20.1 20.1 20.1 20.1 20.1 20.2 20.2 20.2 20.2 20.2 20.2 20.2 20.2 20.2 20.1 20.1 20.1 20.1 20.1 20.1 20.1 20.1 20.1 20.1 20.1 20.1 20.1 20.1 20.2 20.2 20.2 20.2 20.2 20.2 20.2 20.2 20.2 20.2 20.2 20.2 20.2 20.2 20.2 20.2 20.2 20.2 20.2 20.2 20.3 20.3 20.3 20.3 20.3 20.3 20.3 20.3 20.3 20.3 20.3 20.2 20.2 20.2 20.2 20.2 20.2 20.2 20.3 20.3 20.3 20.4 20.4 20.3 20.3 20.4 20.4 20.5 20.5 20.4 20.4 20.3 20.3 20.3 20.3 20.3 20.3 20.3 20.3 20.2 20.2 20.2 20.2 20.2 20.4 20.4 20.4 20.5 20.5 20.5 20.5 20.5 20.5 20.6 20.5 20.5 20.4 20.4 20.4 20.4 20.3 20.3 20.3 20.3 20.3 20.3 20.2 20.2 20.2 20.2 20.4 20.5 20.5 20.5 20.5 20.5 20.5 20.6 20.6 20.6 20.6 20.5 20.4 20.4 20.4 20.4 20.4 20.4 20.3 20.3 20.3 20.3 20.3 20.2 20.2 20.2 20.4 20.5 20.5 20.6 20.6 20.6 20.6 20.7 20.7 20.7 20.6 20.5 20.5 20.5 20.5 20.4 20.4 20.4 20.4 20.3 20.3 20.3 20.3 20.3 20.2 20.2 20.5 20.6 20.6 20.6 20.7 20.7 20.7 20.8 20.8 20.8 20.7 20.6 20.6 20.5 20.5 20.5 20.5 20.4 20.4 20.4 20.3 20.3 20.3 20.3 20.2 20.2 20.5 20.6 20.7 20.7 20.8 20.8 20.8 20.9 20.9 20.9 20.8 20.7 20.6 20.6 20.6 20.5 20.5 20.5 20.4 20.4 20.4 20.3 20.3 20.3 20.2 20.2 20.6 20.7 20.7 20.8 20.9 20.9 21.0 21.0 21.0 21.0 20.9 20.8 20.7 20.7 20.6 20.6 20.6 20.5 20.5 20.4 20.4 20.4 20.4 20.3 20.2 20.1 20.7 20.8 20.8 20.9 21.0 21.0 21.1 21.2 21.2 21.1 21.0 20.9 20.8 20.8 20.7 20.7 20.6 20.6 20.5 20.5 20.4 20.4 20.4 20.3 20.2 20.1 20.8 20.9 21.0 21.1 21.1 21.2 21.4 21.5 21.4 21.3 21.1 21.0 21.0 20.9 20.8 20.8 20.7 20.6 20.6 20.5 20.5 20.5 20.4 20.3 20.2 20.1 20.8 21.0 21.1 21.2 21.3 21.4 21.6 21.8 21.7 21.5 21.3 21.2 21.1 21.0 20.9 20.8 20.8 20.7 20.6 20.6 20.5 20.5 20.4 20.3 20.2 20.1 21.0 21.2 21.3 21.4 21.5 21.7 22.0 22.1 22.0 21.8 21.6 21.4 21.3 21.2 21.1 20.9 20.8 20.8 20.7 20.6 20.6 20.5 20.4 20.3 20.2 20.1 21.1 21.3 21.5 21.5 21.7 22.1 22.5 22.7 22.4 22.1 21.8 21.6 21.5 21.3 21.2 21.1 20.9 20.8 20.7 20.7 20.6 20.5 20.5 20.3 20.2 20.1 21.4 21.6 21.7 21.8 22.0 22.6 23.1 23.3 22.9 22.5 22.2 21.9 21.7 21.5 21.3 21.2 21.0 20.9 20.8 20.7 20.6 20.6 20.5 20.3 20.2 20.1 22.4 22.8 23.1 23.0 22.9 23.3 24.1 25.9 25.3 23.2 22.6 22.3 22.0 21.7 21.5 21.3 21.1 21.0 20.8 20.7 20.7 20.6 20.5 20.4 20.2 20.1 25.6 25.0 25.0 25.4 24.6 24.7 32.5 53.4 52.3 30.8 23.4 22.7 22.3 22.0 21.7 21.4 21.2 21.1 20.9 20.8 20.8 20.7 20.6 20.4 20.2 20.1 29.8 29.5 41.3 51.6 55.1 48.2 55.0 106.5 121.8 71.0 30.7 23.3 22.7 22.3 21.9 21.7 21.4 21.2 21.1 21