<?xml version="1.0"?>
<VTKFile type="PolyData" version="1.0" byte_order="LittleEndian" header_type="UInt64">
<PolyData>
<Piece NumberOfPoints="3" NumberOfVerts="0" NumberOfLines="0" NumberOfPolys="0">
    <Points>
        <DataArray type="Float32" NumberOfComponents="3" format="ascii">
        0.2960 2.0000 1.8000 5.0000 2.0000 1.8000 12.0560 10.4672 1.8000 
        </DataArray>
    </Points>
    <PointData>
        <DataArray type="Float32" Name="tag" format="ascii">
            17.0000 21.0000 25.0000 
         </DataArray>
        <DataArray type="Float32" Name="PARTICLE TEMPERATURE(C)" format="ascii">
            20.6673 21.7013 57.5482 
         </DataArray>
        <DataArray type="Float32" Name="PARTICLE AGE(s)" format="ascii">
            47.0308 47.0308 47.0308 
         </DataArray>
    </PointData>
</Piece>
</PolyData>
</VTKFile>