<?xml version="1.0"?>
<VTKFile type="ImageData" version="1.0" byte_order="LittleEndian" header_type="UInt64">
<ImageData WholeExtent="0 25 0 25 1 1"
 Origin="0.0000 0.0000 0.0000" Spacing="0.6000 0.6000 0.6000">
<Piece Extent="0 25 0 25 1 1">
<PointData>
<DataArray Name="TEMPERATURE" NumberOfComponents="1" type="Float32" format="ascii">
20.9 20.9 20.9 21.5 22.6 24.1 26.1 26.5 25.6 24.9 25.6 26.8 26.7 24.9 22.6 21.6 21.6 22.2 23.1 24.6 25.1 24.2 23.5 23.5 24.4 26.6 20.9 21.1 21.8 23.2 24.9 26.9 29.5 30.1 28.9 27.6 27.4 27.7 27.3 26.0 24.4 24.1 25.1 26.3 26.6 26.5 26.0 25.3 24.8 24.7 25.4 26.7 21.3 21.6 22.6 24.2 26.1 28.6 30.9 32.1 31.6 30.2 29.2 28.7 28.4 27.5 26.6 26.6 27.8 29.6 31.2 31.0 28.9 26.9 26.0 26.1 27.1 27.1 21.7 22.2 23.1 25.2 27.8 29.7 30.9 32.0 32.1 30.9 30.1 29.5 28.8 27.6 26.9 26.7 27.3 30.1 33.9 35.0 32.2 28.9 27.5 28.1 30.4 30.6 22.2 22.7 23.6 26.1 29.0 31.6 32.9 33.0 33.1 32.1 30.9 29.7 28.3 27.3 27.1 27.2 27.6 30.1 33.4 34.1 31.8 29.5 29.3 31.2 34.9 35.7 24.4 24.9 25.1 27.1 29.5 31.9 32.9 32.4 32.5 31.4 29.9 28.5 27.4 26.9 27.3 27.5 27.6 29.7 32.4 33.1 31.3 29.9 33.1 38.0 40.8 40.0 29.0 29.9 30.3 31.4 31.7 31.4 31.2 30.6 30.8 29.9 28.6 27.3 26.4 26.4 26.9 27.0 27.1 29.8 34.4 36.7 35.3 35.4 41.1 45.9 46.3 44.6 32.1 33.6 35.0 33.6 30.6 29.0 28.3 28.0 28.7 28.5 27.2 25.9 25.4 25.9 26.8 26.9 27.5 31.5 37.3 39.3 38.4 41.1 46.4 48.2 47.4 47.0 29.9 31.9 34.0 32.4 29.0 27.4 27.2 27.0 27.6 27.5 26.5 25.5 25.0 25.5 26.5 27.0 28.0 31.8 36.5 38.2 39.3 43.2 46.8 47.5 48.4 48.4 28.5 30.6 32.4 31.6 29.3 27.5 27.1 26.9 27.3 27.1 26.5 26.0 25.6 26.0 26.7 27.2 28.3 31.0 34.8 38.0 41.3 45.2 47.0 48.7 53.5 53.8 28.8 30.7 31.8 30.5 28.9 27.8 26.9 26.4 26.8 26.6 26.5 26.5 26.8 27.2 27.4 27.9 29.2 31.4 34.1 36.9 41.4 46.5 48.8 53.1 60.9 62.6 26.2 27.7 29.1 29.0 28.5 27.5 26.4 25.7 25.8 25.9 26.5 27.1 27.7 28.0 28.1 28.6 29.2 30.0 31.3 34.2 39.6 46.0 51.2 57.1 64.1 66.0 24.7 26.1 27.4 28.4 28.8 27.5 26.3 25.6 25.5 25.8 26.9 27.9 28.4 28.6 28.6 28.8 28.9 29.2 30.9 34.7 40.4 47.3 54.1 58.7 60.7 59.9 25.0 26.2 27.1 28.1 28.5 27.4 26.5 25.9 25.8 26.0 27.1 28.2 28.8 29.0 28.9 28.8 28.7 30.3 34.0 38.7 44.3 50.8 56.6 58.6 55.1 52.1 24.8 25.8 26.7 27.8 28.6 27.7 26.5 25.9 25.9 25.9 26.5 27.3 28.1 28.8 29.1 29.0 30.0 33.3 37.7 41.1 44.9 50.3 55.4 55.0 50.3 54.2 24.1 25.4 26.5 27.2 28.4 28.0 26.6 25.6 25.5 25.5 25.8 26.3 27.2 28.6 29.4 30.0 32.1 35.4 37.7 38.4 39.9 45.1 50.8 48.6 52.1 68.4 23.0 24.6 26.0 26.8 28.1 27.9 26.4 25.0 24.6 24.5 24.8 25.4 26.5 28.2 30.0 31.7 34.0 36.2 36.5 35.2 35.7 41.5 47.0 46.7 60.0 76.7 22.4 23.5 24.8 26.3 27.7 27.6 26.1 24.4 23.9 23.9 24.4 25.4 26.9 28.5 31.0 34.0 36.2 37.3 35.9 34.4 38.3 46.6 49.3 49.3 61.1 68.7 22.7 23.2 24.3 26.0 26.9 26.9 26.1 24.6 24.3 25.2 27.2 29.0 30.3 30.6 32.8 36.7 38.8 37.6 34.3 36.3 45.6 49.5 46.6 49.8 65.5 70.0 24.3 24.7 25.7 27.3 27.4 26.6 26.0 24.8 25.3 28.7 32.8 34.8 34.6 33.0 33.9 37.0 37.8 34.9 31.7 35.4 41.4 39.5 38.5 50.6 78.7 97.9 24.6 25.4 26.3 27.3 27.4 26.5 25.5 24.5 26.8 32.5 36.9 38.3 37.6 35.0 33.5 34.6 35.8 34.7 31.6 31.8 33.8 35.9 42.1 54.1 83.4 123.5 22.4 23.4 24.9 25.6 25.7 25.3 24.8 24.3 26.1 30.5 34.2 36.2 37.6 36.7 34.4 34.1 37.2 38.6 33.9 30.5 32.7 39.4 48.9 55.7 74.1 113.7 21.2 22.4 24.2 25.2 25.0 24.4 24.4 24.2 24.2 25.7 28.8 32.7 36.7 37.2 34.7 33.4 37.1 41.7 38.9 33.0 31.4 35.9 45.2 55.5 70.3 92.8 21.2 22.3 23.7 24.4 24.4 24.0 24.2 24.2 24.1 25.5 28.9 33.9 37.6 36.1 32.8 32.0 35.2 42.6 45.0 39.3 33.4 33.6 41.2 54.3 69.0 77.5 20.7 21.7 22.8 23.1 23.4 23.6 24.0 24.2 24.3 26.0 30.5 36.4 38.5 35.0 32.1 32.4 34.7 41.8 47.9 45.2 38.0 35.6 41.5 49.7 56.6 59.9 20.5 21.4 22.3 22.7 23.4 23.8 24.3 24.3 24.3 25.7 30.0 36.0 38.3 35.0 32.6 32.6 32.9 38.3 46.9 48.7 42.5 37.4 41.0 47.2 49.6 43.5 
</DataArray>
</PointData>
</Piece>
</ImageData>
</VTKFile>
