<?xml version="1.0"?>
<VTKFile type="RectilinearGrid" version="1.0" byte_order="LittleEndian" header_type="UInt64">
<RectilinearGrid WholeExtent="0 25 0 25 0 15">
<Piece Extent="0 25 0 25 0 15">
<Coordinates>
<DataArray type="Float64" Name="Array X-Axis" format="ascii" RangeMin="0.0" RangeMax="15.0">
0.0 0.6 1.2 1.8 2.4 3.0 3.6 4.2 4.8 5.4 6.0 6.6 7.2 7.8 8.4 9.0 9.6 10.2 10.8 11.4 12.0 12.6 13.2 13.8 14.4 15.0 
</DataArray>
<DataArray type="Float64" Name="Array Y-Axis" format="ascii" RangeMin="0.0" RangeMax="15.0">
0.0 0.6 1.2 1.8 2.4 3.0 3.6 4.2 4.8 5.4 6.0 6.6 7.2 7.8 8.4 9.0 9.6 10.2 10.8 11.4 12.0 12.6 13.2 13.8 14.4 15.0 
</DataArray>
<DataArray type="Float64" Name="Array Z-Axis" format="ascii" RangeMin="0.0" RangeMax="9.0">
0.0 0.6 1.2 1.8 2.4 3.0 3.6 4.2 4.8 5.4 6.0 6.6 7.2 7.8 8.4 9.0 
</DataArray>
</Coordinates>
<PointData>
<DataArray Name="SOOT DENSITY" NumberOfComponents="1" type="UInt8" format="ascii">
0 0 0 0 0 0 0 0 0 0 0 0 0 0 0 0 0 0 0 0 0 0 0 0 0 0 0 0 0 0 0 0 0 0 0 0 0 0 0 0 0 0 0 0 0 0 0 0 0 0 0 0 0 0 0 0 0 0 0 0 0 0 0 0 0 0 0 0 0 0 0 0 0 0 0 0 0 0 0 0 0 0 0 0 0 0 0 0 0 0 0 0 0 0 0 0 0 0 0 0 0 0 0 0 0 0 0 0 0 0 0 0 0 0 0 0 0 0 0 0 0 0 0 0 0 0 0 0 0 0 0 0 0 0 0 0 0 0 0 0 0 0 0 0 0 0 0 0 0 0 0 0 0 0 0 0 0 0 0 0 0 0 0 0 0 0 0 0 0 0 0 0 0 0 0 0 0 0 0 0 0 0 0 0 0 0 0 0 0 0 0 0 0 0 0 0 0 0 0 0 0 0 0 0 0 0 0 0 0 0 0 0 0 0 0 0 0 0 0 0 0 0 0 0 0 0 0 0 0 0 0 0 0 0 0 0 0 0 0 0 0 0 0 0 0 0 0 0 0 0 0 0 0 0 0 0 0 0 0 0 0 0 0 0 0 0 0 0 0 0 0 0 0 0 0 0 0 0 0 0 0 0 0 0 0 0 0 0 0 0 0 0 0 0 0 0 0 0 0 0 0 0 0 0 0 0 0 0 0 0 0 0 0 0 0 0 0 0 0 0 0 0 0 0 0 0 0 0 0 0 0 0 0 0 0 0 0 0 0 0 0 0 0 0 0 0 0 0 0 0 0 0 0 0 0 0 0 0 0 0 0 0 0 0 0 0 0 0 0 0 0 0 0 0 0 0 0 0 0 0 0 0 0 0 0 0 0 0 0 0 0 0 0 0 0 0 0 0 0 0 0 0 0 0 0 0 0 0 0 0 0 0 0 0 0 0 0 0 0 0 0 0 0 0 0 0 0 0 0 0 0 0 0 0 0 0 0 0 0 0 0 0 0 0 0 0 0 0 0 0 0 0 0 0 0 0 0 0 0 0 0 0 0 0 0 0 0 0 0 0 0 0 0 0 0 0 0 0 0 0 0 0 0 0 0 0 0 0 0 0 0 0 0 0 0 0 0 0 0 0 0 0 0 0 0 0 0 0 0 0 0 0 0 0 0 0 0 0 0 0 0 0 0 0 0 0 0 0 0 0 0 0 0 0 0 0 0 0 0 0 0 0 0 0 0 0 0 0 0 0 0 0 0 0 0 0 0 0 0 0 0 0 0 0 0 0 0 0 0 0 0 0 0 0 0 0 0 0 0 0 0 0 0 0 0 0 0 0 0 0 0 0 0 0 0 0 0 0 0 0 0 0 0 0 0 0 0 0 0 0 0 0 0 0 0 0 0 0 0 0 0 0 0 0 0 0 0 0 0 0 0 0 0 0 0 0 0 0 0 0 0 0 0 0 0 0 0 0 0 0 0 0 0 0 0 0 0 0 0 0 0 0 0 0 0 0 0 0 0 0 0 0 0 0 0 0 0 0 0 0 0 0 0 0 0 0 0 0 0 0 0 0 0 0 0 0 0 0 0 0 0 0 0 0 0 0 0 0 0 0 0 0 0 0 0 0 0 0 0 0 0 0 0 0 0 0 0 0 0 0 0 0 0 0 0 0 0 0 0 0 0 0 0 0 0 0 0 0 0 0 0 0 0 0 0 0 0 0 0 0 0 0 0 0 0 0 0 0 0 0 0 0 0 0 0 0 0 0 0 0 0 0 0 0 0 0 0 0 0 0 0 0 0 0 0 0 0 0 0 0 0 0 0 0 0 0 0 0 0 0 0 0 0 0 0 0 0 0 0 0 0 0 0 0 0 0 0 0 0 0 0 0 0 0 0 0 0 0 0 0 0 0 0 0 0 0 0 0 0 0 0 0 0 0 0 0 0 0 0 0 0 0 0 0 0 0 0 0 0 0 0 0 0 0 0 0 0 0 0 0 0 0 0 0 0 0 0 0 0 0 0 0 0 0 0 0 0 0 0 0 0 0 0 0 0 0 0 0 0 0 0 0 0 0 0 0 0 0 0 0 0 0 0 0 0 0 0 0 0 0 0 0 0 0 0 0 0 0 0 0 0 0 0 0 0 0 0 0 0 0 0 0 0 0 0 0 0 0 0 0 0 0 0 0 0 0 0 0 0 0 0 0 0 0 0 0 0 0 0 0 0 0 0 0 0 0 0 0 0 0 0 0 0 0 0 0 0 0 0 0 0 0 0 0 0 0 0 0 0 0 0 0 0 0 0 0 0 0 0 0 0 0 0 0 0 0 0 0 0 0 0 0 0 0 0 0 0 0 0 0 0 0 0 0 0 0 0 0 0 0 0 0 0 0 0 0 0 0 0 0 0 0 0 0 0 0 0 0 0 0 0 0 0 0 0 0 0 0 0 0 0 0 0 0 0 0 0 0 0 0 0 0 0 0 0 0 0 0 0 0 0 0 0 0 0 0 0 0 0 0 0 0 0 0 0 0 0 0 0 0 0 0 0 0 0 0 0 0 0 0 0 0 0 0 0 0 0 0 0 0 0 0 0 0 0 0 0 0 0 0 0 0 0 0 0 0 0 0 0 0 0 0 0 0 0 0 0 0 0 0 0 0 0 0 0 0 0 0 0 0 0 0 0 0 0 0 0 0 0 0 0 0 0 0 0 0 0 0 0 0 0 0 0 0 0 0 0 0 0 0 0 0 0 0 0 0 0 0 0 0 0 0 0 0 0 0 0 0 0 0 0 0 0 0 0 0 0 0 0 0 0 0 0 0 0 0 0 0 0 0 0 0 0 0 0 0 0 0 0 0 0 0 0 0 0 0 0 0 0 0 0 0 0 0 0 0 0 0 0 0 0 0 0 0 0 0 0 0 0 0 0 0 0 0 0 0 0 0 0 0 0 0 0 0 0 0 0 0 0 0 0 0 0 0 0 0 0 0 0 0 0 0 0 0 0 0 0 0 0 0 0 0 0 0 0 0 0 0 0 0 0 0 0 0 0 0 0 0 0 0 0 0 0 0 0 0 0 0 0 0 0 0 0 0 0 0 0 0 0 0 0 0 0 0 0 0 0 0 0 0 0 0 0 0 0 0 0 0 0 0 0 0 0 0 0 0 0 0 0 0 0 0 0 0 0 0 0 0 0 0 0 0 0 0 0 0 0 0 0 0 0 0 0 0 0 0 0 0 0 0 0 0 0 0 0 0 0 0 0 0 0 0 0 0 0 0 0 0 0 0 0 0 0 0 0 0 0 0 0 0 0 0 0 0 0 0 0 0 0 0 0 0 0 0 0 0 0 0 0 0 0 0 0 0 0 0 0 0 0 0 0 0 0 0 0 0 0 0 0 0 0 0 0 0 0 0 0 0 0 0 0 0 0 0 0 0 0 0 0 0 0 0 0 0 0 0 0 0 0 0 0 0 0 0 0 0 0 0 0 0 0 0 0 0 0 0 0 0 0 0 0 0 0 0 0 0 0 0 0 0 0 0 0 0 0 0 0 0 0 0 0 0 0 0 0 0 0 0 0 0 0 0 0 0 0 0 0 0 0 0 0 0 0 0 0 0 0 0 0 0 0 0 0 0 0 0 0 0 0 0 0 0 0 0 0 0 0 0 0 0 0 0 0 0 0 0 0 0 0 0 0 0 0 0 0 0 0 0 0 0 0 0 0 0 0 0 0 0 0 0 0 0 0 0 0 0 0 0 0 0 0 0 0 0 0 0 0 0 0 0 0 0 0 0 0 0 0 0 0 0 0 0 0 0 0 0 0 0 0 0 0 0 0 0 0 0 0 0 0 0 0 0 0 0 0 0 0 0 0 0 0 0 0 0 0 0 0 0 0 0 0 0 0 0 0 0 0 0 0 0 0 0 0 0 0 0 0 0 0 0 0 0 0 0 0 0 0 0 0 0 0 0 0 0 0 0 0 0 0 0 0 0 0 0 0 0 0 0 0 0 0 0 0 0 0 0 0 0 0 0 0 0 0 0 0 0 0 0 0 0 0 0 0 0 0 0 0 0 0 0 0 0 0 0 0 0 0 0 0 0 0 0 0 0 0 0 0 0 0 0 0 0 0 0 0 0 0 0 0 0 0 0 0 0 0 0 0 0 0 0 0 0 0 0 0 0 0 0 0 0 0 0 0 0 0 0 0 0 0 0 0 0 0 0 0 0 0 0 0 0 0 1 0 0 0 0 0 0 0 0 0 0 0 0 0 0 0 0 0 0 0 0 0 0 0 0 0 2 0 0 0 0 0 0 0 0 0 0 0 0 0 0 0 0 0 0 0 0 0 0 0 0 0 2 0 0 0 0 0 0 0 0 0 0 0 0 0 0 0 0 0 0 0 0 0 0 0 0 0 1 0 0 0 0 0 0 0 0 0 0 0 0 0 0 0 0 0 0 0 0 0 0 0 0 0 1 0 0 0 0 0 0 0 0 0 0 0 0 0 0 0 0 0 0 0 0 0 0 0 0 0 0 0 0 0 0 0 0 0 0 0 0 0 0 0 0 0 0 0 0 0 0 0 0 0 0 0 0 0 0 0 0 0 0 0 0 0 0 0 0 0 0 0 0 0 0 0 0 0 0 0 0 0 0 0 0 0 0 0 0 0 0 0 0 0 0 0 0 0 0 0 0 0 0 0 0 0 0 0 0 0 0 0 0 0 0 0 0 0 0 0 0 0 0 0 0 0 0 0 0 0 0 0 0 0 0 0 0 0 0 0 0 0 0 0 0 0 0 0 0 0 0 0 0 0 0 0 0 0 0 0 0 0 0 0 0 0 0 0 0 0 0 0 0 0 0 0 0 0 0 0 0 0 0 0 0 0 0 0 0 0 0 0 0 0 0 0 0 0 0 0 0 0 0 0 0 0 0 0 0 0 0 0 0 0 0 0 0 0 0 0 0 0 0 0 0 0 0 0 0 0 0 0 0 0 0 0 0 0 0 0 0 0 0 0 0 0 0 0 0 0 0 0 0 0 0 0 0 0 0 0 0 0 0 0 0 0 0 0 0 0 0 0 0 0 0 0 0 0 0 0 0 0 0 0 0 0 0 0 0 0 0 0 0 0 0 0 0 0 0 0 0 0 0 0 0 0 0 0 0 0 0 0 0 0 0 0 0 0 0 0 0 0 0 0 0 0 0 0 0 0 0 0 0 0 0 0 0 0 0 0 0 0 0 0 0 0 0 0 0 0 0 0 0 0 0 0 0 0 0 0 0 0 0 0 0 0 0 0 0 0 0 0 0 0 0 0 0 0 0 0 0 0 0 0 0 0 0 0 0 0 0 0 0 0 0 0 0 0 0 0 0 0 0 0 0 0 0 0 0 0 0 0 0 0 0 0 0 0 0 0 0 0 0 0 0 0 0 0 0 0 0 0 0 0 0 0 0 0 0 0 0 0 0 0 0 0 0 0 0 0 0 0 0 0 0 0 0 0 0 0 0 0 0 0 0 0 0 0 0 0 0 0 0 0 0 0 0 0 0 0 0 0 0 0 0 0 0 0 0 0 0 0 0 0 0 0 0 0 0 0 0 0 0 0 0 0 0 0 0 0 0 0 0 0 0 0 0 0 0 0 0 0 0 0 0 0 0 0 0 0 0 0 0 0 0 0 0 0 0 0 0 0 0 0 0 0 0 0 0 0 3 0 0 0 0 0 0 0 0 0 0 0 0 0 0 0 0 0 0 0 0 0 0 0 0 1 17 0 0 0 0 0 0 0 0 0 0 0 0 0 0 0 0 0 0 0 0 0 0 0 0 1 22 0 0 0 0 0 0 0 0 0 0 0 0 0 0 0 0 0 0 0 0 0 0 0 0 1 11 0 0 0 0 0 0 0 0 0 0 0 0 0 0 0 0 0 0 0 0 0 0 0 0 1 6 0 0 0 0 0 0 0 0 0 0 0 0 0 0 0 0 0 0 0 0 0 0 0 0 0 5 0 0 0 0 0 0 0 0 0 0 0 0 0 0 0 0 0 0 0 0 0 0 0 0 0 1 0 0 0 0 0 0 0 0 0 0 0 0 0 0 0 0 0 0 0 0 0 0 0 0 0 0 0 0 0 0 0 0 0 0 0 0 0 0 0 0 0 0 0 0 0 0 0 0 0 0 0 0 0 0 0 0 0 0 0 0 0 0 0 0 0 0 0 0 0 0 0 0 0 0 0 0 0 0 0 0 0 0 0 0 0 0 0 0 0 0 0 0 0 0 0 0 0 0 0 0 0 0 0 0 0 0 0 0 0 0 0 0 0 0 0 0 0 0 0 0 0 0 0 0 0 0 0 0 0 0 0 0 0 0 0 0 0 0 0 0 0 0 0 0 0 0 0 0 0 0 0 0 0 0 0 0 0 0 0 0 0 0 0 0 0 0 0 0 0 0 0 0 0 0 0 0 0 0 0 0 0 0 0 0 0 0 0 0 0 0 0 0 0 0 0 0 0 0 0 0 0 0 0 0 0 0 0 0 0 0 0 0 0 0 0 0 0 0 0 0 0 0 0 0 0 0 0 0 0 0 0 0 0 0 0 0 0 0 0 0 0 0 0 0 0 0 0 0 0 0 0 0 0 0 0 0 0 0 0 0 0 0 0 0 0 0 0 0 0 0 0 0 0 0 0 0 0 0 0 0 0 0 0 0 0 0 0 0 0 0 0 0 0 0 0 0 0 0 0 0 0 0 0 0 0 0 0 0 0 0 0 0 0 0 0 0 0 0 0 0 0 0 0 0 0 0 0 0 0 0 0 0 0 0 0 0 0 0 0 0 0 0 0 0 0 0 0 0 0 0 0 0 0 0 0 0 0 0 0 0 0 0 0 0 0 0 0 0 0 0 0 0 0 0 0 0 0 0 0 0 0 0 0 0 0 0 0 0 0 0 0 0 0 0 0 0 0 0 0 0 0 0 0 0 0 0 0 0 0 0 0 0 0 0 0 0 0 0 0 0 0 0 0 0 0 0 0 0 0 0 0 0 0 0 0 0 0 0 0 0 0 0 0 0 0 0 0 0 0 0 0 0 0 0 0 0 0 0 0 0 0 0 0 0 0 0 0 0 0 0 0 0 0 0 0 0 0 0 0 0 0 0 0 0 0 0 0 0 0 0 0 0 0 1 0 0 0 0 0 0 0 0 0 0 0 0 0 0 0 0 0 0 0 0 0 0 0 0 3 19 0 0 0 0 0 0 0 0 0 0 0 0 0 0 0 0 0 0 0 0 0 0 0 1 21 95 0 0 0 0 0 0 0 0 0 0 0 0 0 0 0 0 0 0 0 0 0 0 0 1 30 131 0 0 0 0 0 0 0 0 0 0 0 0 0 0 0 0 0 0 0 0 0 0 0 1 15 85 0 0 0 0 0 0 0 0 0 0 0 0 0 0 0 0 0 0 0 0 0 0 0 1 5 41 0 0 0 0 0 0 0 0 0 0 0 0 0 0 0 0 0 0 0 0 0 0 0 0 2 26 0 0 0 0 0 0 0 0 0 0 0 0 0 0 0 0 0 0 0 0 0 0 0 0 0 4 0 0 0 0 0 0 0 0 0 0 0 0 0 0 0 0 0 0 0 0 0 0 0 0 0 0 0 0 0 0 0 0 0 0 0 0 0 0 0 0 0 0 0 0 0 0 0 0 0 0 0 0 0 0 0 0 0 0 0 0 0 0 0 0 0 0 0 0 0 0 0 0 0 0 0 0 0 0 0 0 0 0 0 0 0 0 0 0 0 0 0 0 0 0 0 0 0 0 0 0 0 0 0 0 0 0 0 0 0 0 0 0 0 0 0 0 0 0 0 0 0 0 0 0 0 0 0 0 0 0 0 0 0 0 0 0 0 0 0 0 0 0 0 0 0 0 0 0 0 0 0 0 0 0 0 0 0 0 0 0 0 0 0 0 0 0 0 0 0 0 0 0 0 0 0 0 0 0 0 0 0 0 0 0 0 0 0 0 0 0 0 0 0 0 0 0 0 0 0 0 0 0 0 0 0 0 0 0 0 0 0 0 0 0 0 0 0 0 0 0 0 0 0 0 0 0 0 0 0 0 0 0 0 0 0 0 0 0 0 0 0 0 0 0 0 0 0 0 0 0 0 0 0 0 0 0 0 0 0 0 0 0 0 0 0 0 0 0 0 0 0 0 0 0 0 0 0 0 0 0 0 0 0 0 0 0 0 0 0 0 0 0 0 0 0 0 0 0 0 0 0 0 0 0 0 0 0 0 0 0 0 0 0 0 0 0 0 0 0 0 0 0 0 0 0 0 0 0 0 0 0 0 0 0 0 0 0 0 0 0 0 0 0 0 0 0 0 0 0 0 0 0 0 0 0 0 0 0 0 0 0 0 0 0 0 0 0 0 0 0 0 0 0 0 0 0 0 0 0 0 0 0 0 0 0 0 0 0 0 0 0 0 0 0 0 0 0 0 0 0 0 0 0 0 0 0 0 0 0 0 0 0 0 0 0 0 0 0 0 0 0 0 0 0 0 0 0 0 0 0 0 0 0 0 0 0 0 0 0 0 0 0 0 0 0 0 0 0 0 0 0 0 0 0 0 0 0 0 0 0 0 0 0 0 0 0 0 1 0 0 0 0 0 0 0 0 0 0 0 0 0 0 0 0 0 0 0 0 0 0 0 0 2 10 0 0 0 0 0 0 0 0 0 0 0 0 0 0 0 0 0 0 0 0 0 0 0 3 19 77 0 0 0 0 0 0 0 0 0 0 0 0 0 0 0 0 0 0 0 0 0 0 1 7 62 184 0 0 0 0 0 0 0 0 0 0 0 0 0 0 0 0 0 0 0 0 0 0 1 8 90 221 0 0 0 0 0 0 0 0 0 0 0 0 0 0 0 0 0 0 0 0 0 0 1 8 68 198 0 0 0 0 0 0 0 0 0 0 0 0 0 0 0 0 0 0 0 0 0 0 2 9 42 156 0 0 0 0 0 0 0 0 0 0 0 0 0 0 0 0 0 0 0 0 0 0 1 5 29 111 0 0 0 0 0 0 0 0 0 0 0 0 0 0 0 0 0 0 0 0 0 0 0 1 7 17 0 0 0 0 0 0 0 0 0 0 0 0 0 0 0 0 0 0 0 0 0 0 0 0 0 1 0 0 0 0 0 0 0 0 0 0 0 0 0 0 0 0 0 0 0 0 0 0 0 0 0 0 0 0 0 0 0 0 0 0 0 0 0 0 0 0 0 0 0 0 0 0 0 0 0 0 0 0 0 0 0 0 0 0 0 0 0 0 0 0 0 0 0 0 0 0 0 0 0 0 0 0 0 0 0 0 0 0 0 0 0 0 0 0 0 0 0 0 0 0 0 0 0 0 0 0 0 0 0 0 0 0 0 0 0 0 0 0 0 0 0 0 0 0 0 0 0 0 0 0 0 0 0 0 0 0 0 0 0 0 0 0 0 0 0 0 0 0 0 0 0 0 0 0 0 0 0 0 0 0 0 0 0 0 0 0 0 0 0 0 0 0 0 0 0 0 0 0 0 0 0 0 0 0 0 0 0 0 0 0 0 0 0 0 0 0 0 0 0 0 0 0 0 0 0 0 0 0 0 0 0 0 0 0 0 0 0 0 0 0 0 0 0 0 0 0 0 0 0 0 0 0 0 0 0 0 0 0 0 0 0 0 0 0 0 0 0 0 0 0 0 0 0 0 0 0 0 0 0 0 0 0 0 0 0 0 0 0 0 0 0 0 0 0 0 0 0 0 0 0 0 0 0 0 0 0 0 0 0 0 0 0 0 0 0 0 0 0 0 0 0 0 0 0 0 0 0 0 0 0 0 0 0 0 0 0 0 0 0 0 0 0 0 0 0 0 0 0 0 0 0 0 0 0 0 0 0 0 0 0 0 0 0 0 0 0 0 0 0 0 0 0 0 0 0 0 0 0 0 0 0 0 0 0 0 0 0 0 0 0 0 0 0 0 0 0 0 0 0 0 0 0 0 0 0 0 0 0 0 0 0 0 0 0 0 0 0 0 0 0 0 0 0 0 0 0 0 0 0 0 0 0 0 0 0 0 0 0 0 0 0 0 0 0 0 0 0 0 0 0 0 0 0 0 0 0 0 0 0 0 0 0 0 0 0 1 1 2 0 0 0 0 0 0 0 0 0 0 0 0 0 0 0 0 0 0 0 0 0 0 1 8 21 35 0 0 0 0 0 0 0 0 0 0 0 0 0 0 0 0 0 0 0 0 0 0 4 49 111 161 0 0 0 0 0 0 0 0 0 0 0 0 0 0 0 0 0 0 0 0 0 0 18 95 182 234 0 0 0 0 0 0 0 0 0 0 0 0 0 0 0 0 0 0 0 0 0 1 18 95 206 249 0 0 0 0 0 0 0 0 0 0 0 0 0 0 0 0 0 0 0 0 0 1 13 81 198 247 0 0 0 0 0 0 0 0 0 0 0 0 0 0 0 0 0 0 0 0 0 1 11 66 171 238 0 0 0 0 0 0 0 0 0 0 0 0 0 0 0 0 0 0 0 0 0 0 2 26 116 202 0 0 0 0 0 0 0 0 0 0 0 0 0 0 0 0 0 0 0 0 0 0 0 2 26 59 0 0 0 0 0 0 0 0 0 0 0 0 0 0 0 0 0 0 0 0 0 0 0 0 1 4 0 0 0 0 0 0 0 0 0 0 0 0 0 0 0 0 0 0 0 0 0 0 0 0 0 0 0 0 0 0 0 0 0 0 0 0 0 0 0 0 0 0 0 0 0 0 0 0 0 0 0 0 0 0 0 0 0 0 0 0 0 0 0 0 0 0 0 0 0 0 0 0 0 0 0 0 0 0 0 0 0 0 0 0 0 0 0 0 0 0 0 0 0 0 0 0 0 0 0 0 0 0 0 0 0 0 0 0 0 0 0 0 0 0 0 0 0 0 0 0 0 0 0 0 0 0 0 0 0 0 0 0 0 0 0 0 0 0 0 0 0 0 0 0 0 0 0 0 0 0 0 0 0 0 0 0 0 0 0 0 0 0 0 0 0 0 0 0 0 0 0 0 0 0 0 0 0 0 0 0 0 0 0 0 0 0 0 0 0 0 0 0 0 0 0 0 0 0 0 0 0 0 0 0 0 0 0 0 0 0 0 0 0 0 0 0 0 0 0 0 0 0 0 0 0 0 0 0 0 0 0 0 0 0 0 0 0 0 0 0 0 0 0 0 0 0 0 0 0 0 0 0 0 0 0 0 0 0 0 0 0 0 0 0 0 0 0 0 0 0 0 0 0 0 0 0 0 0 0 0 0 0 0 0 0 0 0 0 0 0 0 0 0 0 0 0 0 0 0 0 0 0 0 0 0 0 0 0 0 0 0 0 0 0 0 0 0 0 0 0 0 0 0 0 0 0 0 0 0 0 0 0 0 0 0 0 0 0 0 0 0 0 0 0 0 0 0 0 0 0 0 0 0 0 0 0 0 0 0 0 0 0 0 0 0 0 0 0 0 0 0 0 0 0 0 0 0 0 0 0 0 0 0 0 0 0 0 0 0 0 0 0 0 0 0 0 0 0 0 0 0 0 0 0 0 0 0 0 0 0 0 0 0 0 0 0 0 0 0 0 0 0 0 0 0 0 0 0 0 0 0 0 0 0 0 0 0 0 0 3 5 4 0 0 0 0 0 0 0 0 0 0 0 0 0 0 0 0 0 0 0 0 0 0 5 24 39 38 0 0 0 0 0 0 0 0 0 0 0 0 0 0 0 0 0 0 0 0 0 1 18 95 157 175 0 0 0 0 0 0 0 0 0 0 0 0 0 0 0 0 0 0 0 0 0 1 39 156 221 238 0 0 0 0 0 0 0 0 0 0 0 0 0 0 0 0 0 0 0 0 0 2 35 151 236 251 0 0 0 0 0 0 0 0 0 0 0 0 0 0 0 0 0 0 0 0 0 2 25 128 233 252 0 0 0 0 0 0 0 0 0 0 0 0 0 0 0 0 0 0 0 0 1 2 19 97 211 248 0 0 0 0 0 0 0 0 0 0 0 0 0 0 0 0 0 0 0 0 1 3 5 32 139 220 0 0 0 0 0 0 0 0 0 0 0 0 0 0 0 0 0 0 0 0 1 2 3 6 32 82 0 0 0 0 0 0 0 0 0 0 0 0 0 0 0 0 0 0 0 0 0 0 1 2 5 12 0 0 0 0 0 0 0 0 0 0 0 0 0 0 0 0 0 0 0 0 0 0 0 0 0 0 0 0 0 0 0 0 0 0 0 0 0 0 0 0 0 0 0 0 0 0 0 0 0 0 0 0 0 0 0 0 0 0 0 0 0 0 0 0 0 0 0 0 0 0 0 0 0 0 0 0 0 0 0 0 0 0 0 0 0 0 0 0 0 0 0 0 0 0 0 0 0 0 0 0 0 0 0 0 0 0 0 0 0 0 0 0 0 0 0 0 0 0 0 0 0 0 0 0 0 0 0 0 0 0 0 0 0 0 0 0 0 0 0 0 0 0 0 0 0 0 0 0 0 0 0 0 0 0 0 0 0 0 0 0 0 0 0 0 0 0 0 0 0 0 0 0 0 0 0 0 0 0 0 0 0 0 0 0 0 0 0 0 0 0 0 0 0 0 0 0 0 0 0 0 0 0 0 0 0 0 0 0 0 0 0 0 0 0 0 0 0 0 0 0 0 0 0 0 0 0 0 0 0 0 0 0 0 0 0 0 0 0 0 0 0 0 0 0 0 0 0 0 0 0 0 0 0 0 0 0 0 0 0 0 0 0 0 0 0 0 0 0 0 0 0 0 0 0 0 0 0 0 0 0 0 0 0 0 0 0 0 0 0 0 0 0 0 0 0 0 0 0 0 0 0 0 0 0 0 0 0 0 0 0 0 0 0 0 0 0 0 0 0 0 0 0 0 0 0 0 0 0 0 0 0 0 0 0 0 0 0 0 0 0 0 0 0 0 0 0 0 0 0 0 0 0 0 0 0 0 0 0 0 0 0 0 0 0 0 0 0 0 0 0 0 0 0 0 0 0 0 0 0 0 0 0 0 0 0 0 0 0 0 0 0 0 0 0 0 0 0 0 0 0 0 0 0 0 0 0 0 0 0 0 0 0 0 0 0 1 0 0 0 0 0 0 0 0 0 0 0 0 0 0 0 0 0 0 0 0 0 0 0 5 9 7 0 0 0 0 0 0 0 0 0 0 0 0 0 0 0 0 0 0 0 0 0 0 7 32 42 25 0 0 0 0 0 0 0 0 0 0 0 0 0 0 0 0 0 0 0 0 0 1 25 97 137 127 0 0 0 0 0 0 0 0 0 0 0 0 0 0 0 0 0 0 0 0 0 2 37 143 200 200 0 0 0 0 0 0 0 0 0 0 0 0 0 0 0 0 0 0 0 0 0 3 29 137 227 244 0 0 0 0 0 0 0 0 0 0 0 0 0 0 0 0 0 0 0 0 0 3 25 118 229 250 0 0 0 0 0 0 0 0 0 0 0 0 0 0 0 0 0 0 0 0 1 4 18 80 192 241 0 0 0 0 0 0 0 0 0 0 0 0 0 0 0 0 0 0 0 0 2 6 9 28 101 197 0 0 0 0 0 0 0 0 0 0 0 0 0 0 0 0 0 0 0 0 1 4 7 16 36 91 0 0 0 0 0 0 0 0 0 0 0 0 0 0 0 0 0 0 0 0 0 1 2 5 11 28 0 0 0 0 0 0 0 0 0 0 0 0 0 0 0 0 0 0 0 0 0 0 0 0 0 0 0 0 0 0 0 0 0 0 0 0 0 0 0 0 0 0 0 0 0 0 0 0 0 0 0 0 0 0 0 0 0 0 0 0 0 0 0 0 0 0 0 0 0 0 0 0 0 0 0 0 0 0 0 0 0 0 0 0 0 0 0 0 0 0 0 0 0 0 0 0 0 0 0 0 0 0 0 0 0 0 0 0 0 0 0 0 0 0 0 0 0 0 0 0 0 0 1 1 1 1 1 0 0 0 0 0 0 0 0 0 0 0 0 0 0 0 0 0 0 0 0 1 1 1 1 1 1 1 1 1 0 0 0 0 0 0 0 0 0 0 0 0 0 0 0 0 0 1 1 1 1 1 1 1 1 1 0 0 0 0 0 0 0 0 0 0 0 0 0 0 0 0 0 1 1 1 1 1 1 1 1 1 0 0 0 0 0 0 0 0 0 0 0 0 0 0 0 0 0 0 0 0 0 1 1 1 1 1 0 0 0 0 0 0 0 0 0 0 0 0 0 0 0 0 0 0 0 0 0 0 1 1 1 1 0 0 0 0 0 0 0 0 0 0 0 0 0 0 0 0 0 0 0 0 0 0 0 0 1 1 0 0 0 0 0 0 0 0 0 0 0 0 0 0 0 0 0 0 0 0 0 0 0 0 1 1 0 0 0 0 0 0 0 0 0 0 0 0 0 0 0 0 0 0 0 0 0 0 0 0 1 1 0 0 0 0 0 0 0 0 0 0 0 0 0 0 0 0 0 0 0 0 0 0 0 0 1 1 0 0 0 0 0 0 0 0 0 0 0 0 0 0 0 0 0 0 0 0 0 0 0 0 0 1 0 0 0 0 0 0 0 0 0 0 0 0 0 0 0 0 0 0 0 0 0 0 0 0 1 1 0 0 0 0 0 0 0 0 0 0 0 0 0 0 0 0 0 0 0 0 0 0 1 4 9 8 0 0 0 0 0 0 0 0 0 0 0 0 0 0 0 0 0 0 0 0 0 0 4 26 39 27 0 0 0 0 0 0 0 0 0 0 0 0 0 0 0 0 0 0 0 0 0 1 17 72 103 80 0 0 0 0 0 0 0 0 0 0 0 0 0 0 0 0 0 0 0 0 1 4 25 98 148 136 0 0 0 0 0 0 0 0 0 0 0 0 0 0 0 0 0 0 0 0 1 9 36 123 204 223 0 0 0 0 0 0 0 0 0 0 0 0 0 0 0 0 0 0 0 0 1 8 41 133 222 242 0 0 0 0 0 0 0 0 1 1 1 0 0 0 0 0 0 0 0 0 3 7 26 91 182 224 0 0 0 0 0 0 0 0 1 1 1 0 0 0 0 0 0 0 0 0 5 13 18 47 100 169 0 0 0 0 0 0 0 0 0 0 0 0 0 0 0 0 0 0 0 0 4 11 14 28 53 106 0 0 0 0 0 0 0 0 0 0 0 0 0 0 0 0 0 0 0 0 1 4 5 9 18 43 0 0 0 0 0 0 0 0 0 0 0 0 0 0 0 0 0 1 1 1 1 1 1 0 0 0 0 0 1 1 1 1 1 1 1 1 1 1 1 1 1 1 1 1 2 2 2 2 1 1 1 1 0 1 1 1 1 1 1 1 1 2 2 2 1 1 1 1 1 2 2 3 2 2 2 1 2 2 0 1 1 1 1 1 2 2 2 2 2 2 2 2 2 2 2 3 4 4 4 3 3 2 3 4 0 1 1 1 1 1 1 2 2 2 2 2 2 2 3 3 4 5 6 6 5 4 4 4 6 6 0 0 1 1 1 1 1 1 1 1 1 2 2 2 3 4 5 8 8 7 5 4 5 6 10 11 0 0 1 1 1 1 1 1 1 1 1 1 1 2 3 4 6 9 10 7 5 5 6 8 13 13 0 0 1 1 1 1 1 1 1 1 1 1 1 1 2 4 6 8 8 6 5 5 7 11 13 12 0 0 1 1 1 1 1 1 1 1 1 1 1 1 2 4 5 5 5 4 4 5 8 11 12 10 0 0 1 1 1 1 1 1 1 1 1 1 1 1 2 4 5 4 4 3 4 4 6 8 10 10 0 0 1 1 1 1 1 1 1 1 1 1 1 1 2 4 4 4 3 3 3 4 4 5 7 9 0 1 1 1 1 1 1 1 1 1 1 1 1 2 3 4 3 3 2 2 3 3 3 3 5 8 0 1 1 1 1 2 2 1 1 1 1 1 1 2 3 3 3 2 2 2 2 3 3 4 5 7 0 1 1 1 1 2 2 2 1 1 1 2 2 2 3 3 2 2 2 2 2 4 4 4 6 7 0 0 1 1 1 2 3 3 2 2 2 2 2 2 2 2 2 2 2 2 3 5 5 5 6 9 0 0 1 1 1 2 3 3 2 2 2 2 2 2 2 2 2 3 3 3 4 5 5 5 8 12 0 0 1 1 1 2 2 2 2 2 2 2 2 2 2 2 3 3 3 3 4 6 7 7 14 17 0 0 1 1 1 1 2 2 2 2 2 2 2 2 2 2 3 3 3 4 6 9 9 20 36 34 0 1 1 1 1 1 1 1 1 2 2 2 2 2 2 2 2 3 5 7 10 10 14 41 72 71 0 1 1 1 1 1 1 1 2 2 2 1 1 1 1 1 1 2 4 7 9 12 24 59 102 121 1 2 2 1 1 1 2 3 4 3 2 1 1 1 1 1 1 1 2 3 5 20 67 134 186 202 2 4 3 2 2 3 4 5 6 4 3 2 1 2 2 1 1 0 1 2 6 20 74 160 215 228 1 2 2 2 3 3 5 6 7 5 4 2 2 2 2 1 0 0 0 2 8 16 39 110 186 214 0 0 1 1 2 3 5 7 7 5 4 3 2 2 2 1 1 0 0 2 12 24 31 67 128 173 0 0 1 1 2 3 5 6 5 4 3 3 2 2 2 1 1 1 1 4 18 33 32 45 83 130 0 1 1 1 1 2 4 4 3 3 2 2 3 3 2 2 2 2 2 5 21 38 33 30 51 74 1 3 4 5 5 6 8 6 7 8 6 6 5 5 10 16 21 30 40 33 18 12 6 4 9 9 4 5 6 7 9 9 10 11 12 14 15 15 14 14 15 18 21 26 33 32 26 20 13 11 13 15 5 6 8 10 11 12 12 13 14 17 18 18 17 16 17 17 18 22 24 21 16 14 14 15 18 23 3 6 9 10 12 12 13 14 15 16 17 16 15 15 15 17 22 28 32 29 21 16 16 20 26 33 2 7 10 11 12 13 15 16 17 17 16 15 15 15 17 22 30 37 42 37 26 20 22 30 41 45 2 7 10 11 12 14 16 17 17 16 15 14 14 15 19 26 36 46 53 47 31 24 33 48 61 58 4 7 10 11 12 14 15 16 16 16 15 14 14 16 21 30 40 51 58 54 40 32 49 69 72 59 4 8 10 12 13 14 14 14 14 15 15 15 15 16 22 30 38 46 51 52 44 40 59 76 67 48 3 8 10 12 13 13 12 11 11 12 13 14 15 17 22 29 34 37 39 40 37 41 58 66 53 44 3 8 11 12 13 13 12 10 10 11 12 13 14 17 24 30 32 29 27 26 28 34 43 44 39 46 4 10 12 13 13 12 11 10 10 10 10 11 14 18 23 28 27 23 21 20 21 28 35 35 34 45 9 13 15 14 14 13 12 11 10 10 10 11 14 18 22 24 21 17 15 13 17 32 49 51 42 43 14 16 16 15 14 14 14 13 11 10 11 13 15 18 21 21 19 15 12 11 20 46 67 65 51 43 12 13 14 14 14 15 16 15 13 12 12 14 15 17 19 18 17 15 12 17 37 64 74 64 56 48 8 10 12 13 15 17 19 17 15 15 14 14 15 16 17 18 18 17 17 27 51 71 67 54 60 59 6 8 10 13 16 18 20 19 18 17 15 15 16 17 17 18 20 21 22 32 49 62 54 43 57 63 7 8 9 12 15 18 21 21 20 18 16 15 16 16 16 18 21 23 26 34 45 55 49 38 49 56 8 9 9 10 13 17 20 22 22 20 17 15 15 15 15 17 19 24 31 41 52 59 47 36 52 74 11 12 11 9 10 13 17 21 24 23 20 15 13 13 13 13 15 23 38 52 62 57 38 38 76 125 15 15 12 10 10 12 16 24 30 29 21 14 12 12 11 10 10 20 38 49 49 40 36 55 115 177 20 20 16 13 13 15 23 36 40 31 19 12 11 13 14 10 8 14 24 27 25 34 80 141 190 218 19 22 22 19 18 20 31 43 41 27 16 11 12 15 17 12 6 8 10 15 24 38 92 169 214 228 11 16 20 19 20 24 33 40 38 26 16 14 11 13 17 13 5 4 8 19 30 35 59 131 199 224 5 8 11 13 17 24 33 39 39 31 22 18 15 14 15 13 8 5 11 27 43 46 62 120 179 205 6 7 9 10 17 24 30 35 35 32 27 27 25 19 13 12 9 8 19 42 67 76 74 109 158 180 6 9 10 11 17 23 27 27 26 26 27 30 31 23 15 12 10 12 29 53 78 97 84 82 131 141 3 20 23 25 26 28 32 23 24 25 24 24 24 33 48 57 65 80 98 95 77 65 54 48 40 40 22 32 36 40 43 46 52 56 58 60 62 62 62 61 61 63 71 87 101 99 86 74 64 61 67 93 33 39 43 48 52 56 60 64 66 70 72 72 70 67 63 64 75 93 100 92 77 69 70 75 90 119 31 40 46 52 58 60 61 64 69 70 69 63 59 55 57 72 93 107 110 103 88 78 84 99 117 134 25 41 49 55 60 65 69 71 73 72 66 59 55 55 62 82 103 116 123 122 105 89 99 124 142 141 22 39 49 56 62 68 73 72 70 67 62 57 55 58 67 81 99 116 132 135 118 100 116 141 144 128 21 38 51 60 65 68 72 70 70 68 63 58 56 59 68 81 97 116 133 142 133 121 136 146 131 107 15 39 54 64 68 67 66 64 65 66 64 63 61 62 68 79 93 110 126 134 132 130 138 139 120 101 15 42 57 65 68 65 60 56 58 62 64 63 61 62 68 78 90 101 109 111 110 117 126 124 114 117 15 44 59 62 62 58 54 50 50 54 57 58 57 60 70 84 90 88 86 83 83 95 111 113 112 130 17 50 64 61 58 53 50 47 45 47 50 53 54 59 71 83 85 79 74 67 66 90 121 131 123 128 36 58 67 61 57 52 48 46 44 44 46 48 52 60 70 75 75 69 61 52 60 108 153 160 140 127 51 62 68 62 57 52 50 48 45 42 43 46 52 60 67 70 68 62 52 45 74 137 172 168 151 135 46 54 62 60 58 56 54 51 46 43 43 47 52 58 62 63 61 56 49 57 110 161 173 166 163 148 29 42 54 59 60 61 59 55 51 48 47 48 53 57 58 59 60 57 54 79 134 167 163 158 165 157 14 31 48 57 62 66 65 62 57 53 50 52 57 58 57 59 62 61 62 90 134 154 144 137 149 156 12 28 42 53 62 69 72 69 64 57 53 55 59 59 58 62 66 65 69 93 124 137 123 105 118 143 14 30 40 47 57 67 74 75 71 64 57 57 61 60 60 63 63 65 79 99 119 124 101 78 96 142 19 37 41 40 46 57 69 76 77 70 62 60 62 61 60 58 56 66 91 112 119 107 79 79 124 181 36 46 46 42 45 55 68 80 85 76 64 61 62 61 59 52 49 70 101 111 100 77 74 112 174 218 53 58 58 53 55 66 84 96 92 74 60 57 60 62 61 51 56 80 92 86 72 64 96 161 211 234 50 63 72 68 67 76 93 101 90 68 53 52 55 60 58 44 48 66 69 74 79 72 109 180 221 236 33 51 65 64 67 72 81 89 91 75 57 53 50 54 57 45 34 36 57 89 93 72 98 174 222 237 25 37 44 48 59 64 71 81 91 85 69 62 55 54 61 55 43 34 51 90 106 88 107 181 222 232 20 35 40 46 59 66 70 75 80 82 79 77 75 64 57 53 47 39 51 86 119 123 122 170 210 219 15 37 45 50 63 69 70 67 67 73 81 87 87 73 57 50 44 42 59 88 119 145 138 139 184 185 40 66 71 80 93 101 106 101 100 98 96 94 92 96 103 108 123 148 167 173 169 164 158 152 143 121 69 79 86 99 110 117 122 123 122 120 119 116 114 112 112 119 140 162 175 177 172 167 163 159 160 171 81 89 100 113 122 125 127 127 126 124 123 120 118 115 115 130 155 172 178 177 172 168 166 167 172 183 91 101 112 120 124 124 123 124 124 122 117 111 108 106 114 139 163 174 178 178 174 169 170 175 180 183 101 114 122 123 123 123 125 125 125 122 115 108 105 106 119 145 164 172 178 182 178 170 173 183 187 180 106 119 125 124 122 123 124 123 121 118 112 107 105 110 127 147 160 168 176 183 179 170 177 185 180 165 105 118 126 127 125 122 122 120 119 117 112 108 108 119 137 149 156 162 172 180 181 177 182 182 168 152 98 116 124 125 123 119 116 114 114 114 112 111 117 131 143 147 149 155 165 172 174 175 177 175 170 164 95 113 120 120 119 114 110 107 108 110 111 114 124 136 142 142 142 147 153 154 154 161 170 175 179 182 89 108 116 113 110 105 102 100 100 103 108 116 128 136 138 137 136 137 136 133 133 150 174 185 187 191 88 110 116 110 105 99 96 94 93 96 105 119 129 133 132 130 130 129 125 118 126 161 194 203 197 193 99 113 117 109 103 97 94 92 91 94 106 119 126 126 122 120 120 119 115 114 140 185 211 214 205 195 105 113 118 112 105 99 95 93 91 94 105 116 121 119 115 114 113 112 114 131 169 204 217 217 210 201 98 107 115 113 108 102 98 95 93 96 105 113 116 113 109 108 109 115 130 157 191 212 216 216 216 208 81 96 109 113 111 106 102 98 97 101 108 113 113 109 107 110 120 135 153 176 199 210 209 212 217 213 64 85 105 112 113 110 106 102 101 105 111 113 113 113 118 130 144 156 167 181 196 200 197 202 211 214 58 80 100 110 115 116 114 110 107 109 113 115 120 129 140 151 160 166 171 178 186 187 183 186 201 213 60 81 97 105 114 119 121 118 114 113 116 122 134 146 155 161 165 168 171 173 175 174 171 178 197 213 65 85 95 99 107 116 123 122 120 117 120 132 145 154 159 163 165 168 171 170 167 163 166 187 209 223 79 93 101 104 111 120 126 127 125 121 126 140 148 152 155 158 161 168 172 167 158 155 169 198 223 235 96 107 116 117 124 134 141 140 132 125 130 139 140 139 139 144 158 172 171 160 151 147 164 199 228 240 103 118 130 129 132 141 151 152 143 132 129 129 126 121 116 116 140 164 167 162 154 141 160 204 231 241 91 109 124 125 126 127 137 149 153 145 135 129 121 115 112 111 130 155 171 177 166 146 171 215 236 243 79 92 103 108 113 111 118 135 149 149 142 136 125 118 120 127 141 156 171 181 178 163 180 220 239 243 80 93 99 102 108 107 110 121 135 143 144 140 132 124 122 126 136 146 160 175 184 182 184 214 234 239 64 97 105 106 109 108 106 111 125 139 144 142 136 129 122 121 125 130 144 164 181 195 193 203 223 215 38 52 56 65 78 86 90 90 89 86 84 80 78 76 75 78 93 117 134 141 141 138 135 130 127 102 54 57 63 74 86 92 94 93 91 88 85 81 79 77 77 87 108 128 139 143 143 141 138 134 132 130 59 64 74 86 94 96 95 92 90 86 82 79 77 76 80 99 123 135 140 143 143 141 139 137 135 130 71 77 86 92 93 91 90 88 85 82 78 75 74 74 83 104 122 130 134 139 141 138 135 134 129 122 86 91 96 94 90 87 86 85 84 81 77 74 73 75 85 105 119 124 129 134 136 133 131 130 124 115 94 98 99 93 88 84 83 82 82 80 76 74 73 78 93 110 119 120 123 127 128 127 128 127 119 110 93 98 100 94 88 83 81 80 79 77 75 74 75 88 106 116 117 114 116 120 122 123 125 125 121 112 91 95 95 89 85 80 78 76 76 75 74 75 84 101 114 115 110 106 109 112 113 116 121 128 131 127 87 90 89 81 78 75 73 73 73 73 73 77 92 107 113 108 100 99 102 102 102 108 121 135 141 140 81 83 82 76 72 70 69 69 69 70 73 84 100 109 107 98 92 93 93 91 92 108 133 148 149 145 79 81 79 73 69 67 66 65 66 67 76 91 103 106 98 87 85 86 85 82 93 125 153 161 156 149 80 81 79 73 69 66 65 64 64 68 80 94 101 97 86 79 79 80 80 86 114 149 166 168 161 153 78 79 80 77 72 68 66 65 64 69 82 93 96 89 79 74 74 76 85 109 142 164 170 171 166 157 72 76 80 79 75 70 68 66 66 72 82 90 90 82 75 73 74 84 107 137 158 166 168 170 169 162 65 71 79 80 77 72 68 67 68 75 84 88 85 77 75 79 91 110 133 152 160 160 159 165 171 168 58 67 77 80 78 73 69 67 69 77 85 86 83 82 89 102 118 134 148 155 153 149 148 158 171 173 54 64 76 79 80 77 73 70 71 78 85 86 89 100 115 127 137 145 151 150 143 137 140 153 170 177 55 64 74 78 81 82 80 76 76 80 86 92 105 120 131 138 143 148 147 140 132 130 138 156 175 182 58 65 73 76 80 85 85 81 79 81 89 102 117 128 136 141 145 147 141 131 125 128 142 165 183 190 62 69 76 80 86 91 90 85 82 84 97 111 120 125 130 137 143 144 137 127 123 129 145 167 187 197 69 77 85 89 96 101 100 95 90 93 103 111 111 109 110 121 134 141 135 126 122 123 133 155 183 200 78 86 94 95 99 104 109 111 106 103 104 103 97 89 86 94 116 136 139 131 121 113 124 156 185 201 74 83 92 93 92 92 102 114 117 113 109 103 95 86 82 89 114 140 150 144 128 118 139 175 196 205 64 71 78 82 82 79 86 103 112 113 112 108 98 90 88 99 122 142 154 153 143 133 148 181 201 208 70 72 75 76 75 73 76 88 101 108 110 106 97 92 91 99 114 130 145 153 152 145 149 176 198 205 57 77 80 77 73 70 69 78 96 107 109 103 95 93 92 95 102 112 126 142 152 155 154 169 189 173 0 0 0 0 0 0 0 0 0 0 0 0 0 0 0 0 0 0 0 0 0 0 0 0 0 0 0 0 0 0 0 0 0 0 0 0 0 0 0 0 0 0 0 0 0 0 0 0 0 0 0 0 0 0 0 0 0 0 0 0 0 0 0 0 0 0 0 0 0 0 0 0 0 0 0 0 0 0 0 0 0 0 0 0 0 0 0 0 0 0 0 0 0 0 0 0 0 0 0 0 0 0 0 0 0 0 0 0 0 0 0 0 0 0 0 0 0 0 0 0 0 0 0 0 0 0 0 0 0 0 0 0 0 0 0 0 0 0 0 0 0 0 0 0 0 0 0 0 0 0 0 0 0 0 0 0 0 0 0 0 0 0 0 0 0 0 0 0 0 0 0 0 0 0 0 0 0 0 0 0 0 0 0 0 0 0 0 0 0 0 0 0 0 0 0 0 0 0 0 0 0 0 0 0 0 0 0 0 0 0 0 0 0 0 0 0 0 0 0 0 0 0 0 0 0 0 0 0 0 0 0 0 0 0 0 0 0 0 0 0 0 0 0 0 0 0 0 0 0 0 0 0 0 0 0 0 0 0 0 0 0 0 0 0 0 0 0 0 0 0 0 0 0 0 0 0 0 0 0 0 0 0 0 0 0 0 0 0 0 0 0 0 0 0 0 0 0 0 0 0 0 0 0 0 0 0 0 0 0 0 0 0 0 0 0 0 0 0 0 0 0 0 0 0 0 0 0 0 0 0 0 0 0 0 0 0 0 0 0 0 0 0 0 0 0 0 0 0 0 0 0 0 0 0 0 0 0 0 0 0 0 0 0 0 0 0 0 0 0 0 0 0 0 0 0 0 0 0 0 0 0 0 0 0 0 0 0 0 0 0 0 0 0 0 0 0 0 0 0 0 0 0 0 0 0 0 0 0 0 0 0 0 0 0 0 0 0 0 0 0 0 0 0 0 0 0 0 0 0 0 0 0 0 0 0 0 0 0 0 0 0 0 0 0 0 0 0 0 0 0 0 0 0 0 0 0 0 0 0 0 0 0 0 0 0 0 0 0 0 0 0 0 0 0 0 0 0 0 0 0 0 0 0 0 0 0 0 0 0 0 0 0 0 0 0 0 0 0 0 0 0 0 0 0 0 0 0 0 0 0 0 0 0 0 0 0 0 0 0 0 0 0 0 0 0 0 0 0 0 0 0 0 0 0 0 0 0 0 0 0 0 0 0 0 0 0 0 0 0 0 0 0 0 0 0 0 0 0 0 0 0 0 0 0 0 0 0 0 0 0 0 0 0 0 0 0 0 0 0 0 0 0 0 0 0 0 0 0 0 0 0 0 0 0 0 0 0 0 0 0 0 0 0 0 0 0 0 0 0 0 0 0 0 0 0 0 0 0 0 0 0 0 0 0 0 0 0 0 0 0 0 0 0 0 0 0 0 0 0 0 0 0 0 0 0 0 0 0 0 0 0 0 0 0 0 0 0 0 0 0 0 0 0 0 0 0 0 0 0 0 0 0 0 0 0 0 
</DataArray>
<DataArray Name="HRRPUV" NumberOfComponents="1" type="UInt8" format="ascii">