<?xml version="1.0"?>
<VTKFile type="RectilinearGrid" version="1.0" byte_order="LittleEndian" header_type="UInt64">
<RectilinearGrid WholeExtent="0 25 0 25 0 15">
<Piece Extent="0 25 0 25 0 15">
<Coordinates>
<DataArray type="Float64" Name="Array X-Axis" format="ascii" RangeMin="0.0" RangeMax="15.0">
0.0 0.6 1.2 1.8 2.4 3.0 3.6 4.2 4.8 5.4 6.0 6.6 7.2 7.8 8.4 9.0 9.6 10.2 10.8 11.4 12.0 12.6 13.2 13.8 14.4 15.0 
</DataArray>
<DataArray type="Float64" Name="Array Y-Axis" format="ascii" RangeMin="0.0" RangeMax="15.0">
0.0 0.6 1.2 1.8 2.4 3.0 3.6 4.2 4.8 5.4 6.0 6.6 7.2 7.8 8.4 9.0 9.6 10.2 10.8 11.4 12.0 12.6 13.2 13.8 14.4 15.0 
</DataArray>
<DataArray type="Float64" Name="Array Z-Axis" format="ascii" RangeMin="0.0" RangeMax="9.0">
0.0 0.6 1.2 1.8 2.4 3.0 3.6 4.2 4.8 5.4 6.0 6.6 7.2 7.8 8.4 9.0 
</DataArray>
</Coordinates>
<PointData>
<DataArray Name="SOOT DENSITY" NumberOfComponents="1" type="UInt8" format="ascii">
0 0 0 0 0 0 0 0 0 0 0 0 0 0 0 0 0 0 0 0 0 0 0 0 0 0 0 0 0 0 0 0 0 0 0 0 0 0 0 0 0 0 0 0 0 0 0 0 0 0 0 0 0 0 0 0 0 0 0 0 0 0 0 0 0 0 0 0 0 0 0 0 0 0 0 0 0 0 0 0 0 0 0 0 0 0 0 0 0 0 0 0 0 0 0 0 0 0 0 0 0 0 0 0 0 0 0 0 0 0 0 0 0 0 0 0 0 0 0 0 0 0 0 0 0 0 0 0 0 0 0 0 0 0 0 0 0 0 0 0 0 0 0 0 0 0 0 0 0 0 0 0 0 0 0 0 0 0 0 0 0 0 0 0 0 0 0 0 0 0 0 0 0 0 0 0 0 0 0 0 0 0 0 0 0 0 0 0 0 0 0 0 0 0 0 0 0 0 0 0 0 0 0 0 0 0 0 0 0 0 0 0 0 0 0 0 0 0 0 0 0 0 0 0 0 0 0 0 0 0 0 0 0 0 0 0 0 0 0 0 0 0 0 0 0 0 0 0 0 0 0 0 0 0 0 0 0 0 0 0 0 0 0 0 0 0 0 0 0 0 0 0 0 0 0 0 0 0 0 0 0 0 0 0 0 0 0 0 0 0 0 0 0 0 0 0 0 0 0 0 0 0 0 0 0 0 0 0 0 0 0 0 0 0 0 0 0 0 0 0 0 0 0 0 0 0 0 0 0 0 0 0 0 0 0 0 0 0 0 0 0 0 0 0 0 0 0 0 0 0 0 0 0 0 0 0 0 0 0 0 0 0 0 0 0 0 0 0 0 0 0 0 0 0 0 0 0 0 0 0 0 0 0 0 0 0 0 0 0 0 0 0 0 0 0 0 0 0 0 0 0 0 0 0 0 0 0 0 0 0 0 0 0 0 0 0 0 0 0 0 0 0 0 0 0 0 0 0 0 0 0 0 0 0 0 0 0 0 0 0 0 0 0 0 0 0 0 0 0 0 0 0 0 0 0 0 0 0 0 0 0 0 0 0 0 0 0 0 0 0 0 0 0 0 0 0 0 0 0 0 0 0 0 0 0 0 0 0 0 0 0 0 0 0 0 0 0 0 0 0 0 0 0 0 0 0 0 0 0 0 0 0 0 0 0 0 0 0 0 0 0 0 0 0 0 0 0 0 0 0 0 0 0 0 0 0 0 0 0 0 0 0 0 0 0 0 0 0 0 0 0 0 0 0 0 0 0 0 0 0 0 0 0 0 0 0 0 0 0 0 0 0 0 0 0 0 0 0 0 0 0 0 0 0 0 0 0 0 0 0 0 0 0 0 0 0 0 0 0 0 0 0 0 0 0 0 0 0 0 0 0 0 0 0 0 0 0 0 0 0 0 0 0 0 0 0 0 0 0 0 0 0 0 0 0 0 0 0 0 0 0 0 0 0 0 0 0 0 0 0 0 0 0 0 0 0 0 0 0 0 0 0 0 0 0 0 0 0 0 0 0 0 0 0 0 0 0 0 0 0 0 0 0 0 0 0 0 0 0 0 0 0 0 0 0 0 0 0 0 0 0 0 0 0 0 0 0 0 0 0 0 0 0 0 0 0 0 0 0 0 0 0 0 0 0 0 0 0 0 0 0 0 0 0 0 0 0 0 0 0 0 0 0 0 0 0 0 0 0 0 0 0 0 0 0 0 0 0 0 0 0 0 0 0 0 0 0 0 0 0 0 0 0 0 0 0 0 0 0 0 0 0 0 0 0 0 0 0 0 0 0 0 0 0 0 0 0 0 0 0 0 0 0 0 0 0 0 0 0 0 0 0 0 0 0 0 0 0 0 0 0 0 0 0 0 0 0 0 0 0 0 0 0 0 0 0 0 0 0 0 0 0 0 0 0 0 0 0 0 0 0 0 0 0 0 0 0 0 0 0 0 0 0 0 0 0 0 0 0 0 0 0 0 0 0 0 0 0 0 0 0 0 0 0 0 0 0 0 0 0 0 0 0 0 0 0 0 0 0 0 0 0 0 0 0 0 0 0 0 0 0 0 0 0 0 0 0 0 0 0 0 0 0 0 0 0 0 0 0 0 0 0 0 0 0 0 0 0 0 0 0 0 0 0 0 0 0 0 0 0 0 0 0 0 0 0 0 0 0 0 0 0 0 0 0 0 0 0 0 0 0 0 0 0 0 0 0 0 0 0 0 0 0 0 0 0 0 0 0 0 0 0 0 0 0 0 0 0 0 0 0 0 0 0 0 0 0 0 0 0 0 0 0 0 0 0 0 0 0 0 0 0 0 0 0 0 0 0 0 0 0 0 0 0 0 0 0 0 0 0 0 0 0 0 0 0 0 0 0 0 0 0 0 0 0 0 0 0 0 0 0 0 0 0 0 0 0 0 0 0 0 0 0 0 0 0 0 0 0 0 0 0 0 0 0 0 0 0 0 0 0 0 0 0 0 0 0 0 0 0 0 0 0 0 0 0 0 0 0 0 0 0 0 0 0 0 0 0 0 0 0 0 0 0 0 0 0 0 0 0 0 0 0 0 0 0 0 0 0 0 0 0 0 0 0 0 0 0 0 0 0 0 0 0 0 0 0 0 0 0 0 0 0 0 0 0 0 0 0 0 0 0 0 0 0 0 0 0 0 0 0 0 0 0 0 0 0 0 0 0 0 0 0 0 0 0 0 0 0 0 0 0 0 0 0 0 0 0 0 0 0 0 0 0 0 0 0 0 0 0 0 0 0 0 0 0 0 0 0 0 0 0 0 0 0 0 0 0 0 0 0 0 0 0 0 0 0 0 0 0 0 0 0 0 0 0 0 0 0 0 0 0 0 0 0 0 0 0 0 0 0 0 0 0 0 0 0 0 0 0 0 0 0 0 0 0 0 0 0 0 0 0 0 0 0 0 0 0 0 0 0 0 0 0 0 0 0 0 0 0 0 0 0 0 0 0 0 0 0 0 0 0 0 0 0 0 0 0 0 0 0 0 0 0 0 0 0 0 0 0 0 0 0 0 0 0 0 0 0 0 0 0 0 0 0 0 0 0 0 0 0 0 0 0 0 0 0 0 0 0 0 0 0 0 0 0 0 0 0 0 0 0 0 0 0 0 0 0 0 0 0 0 0 0 0 0 0 0 0 0 0 0 0 0 0 0 0 0 0 0 0 0 0 0 0 0 0 0 0 0 0 0 0 0 0 0 0 0 0 0 0 0 0 0 0 0 0 0 0 0 0 0 0 0 0 0 0 0 0 0 0 0 0 0 0 0 0 0 0 0 0 0 0 0 0 0 0 0 0 0 0 0 0 0 0 0 0 0 0 0 0 0 0 0 0 0 0 0 0 0 0 0 0 0 0 0 0 0 0 0 0 0 0 0 0 0 0 0 0 0 0 0 0 0 0 0 0 0 0 0 0 0 0 0 0 0 0 0 0 0 0 0 0 0 0 0 0 0 0 0 0 0 0 0 0 0 0 0 0 0 0 0 0 0 0 0 0 0 0 0 0 0 0 0 0 0 0 0 0 0 0 0 0 0 0 0 0 0 0 0 0 0 0 0 0 0 0 0 0 0 0 0 0 0 0 0 0 0 0 0 0 0 0 0 0 0 0 0 0 0 0 0 0 0 0 0 0 0 0 0 0 0 0 0 0 0 0 0 0 0 0 0 0 0 0 0 0 0 0 0 0 0 0 0 0 0 0 0 0 0 0 0 0 0 0 0 0 0 0 0 0 0 0 0 0 0 0 0 0 0 0 0 0 0 0 0 0 0 0 0 0 0 0 0 0 0 0 0 0 0 0 0 0 0 0 0 0 0 0 0 0 0 0 0 0 0 0 0 0 0 0 0 0 0 0 0 0 0 0 0 0 0 0 0 0 0 0 0 0 0 0 0 0 0 0 0 0 0 0 0 0 0 0 0 0 0 0 0 0 0 0 0 0 0 0 0 0 0 0 0 0 0 0 0 0 0 0 0 0 0 0 0 0 0 0 0 0 0 0 0 0 0 0 0 0 0 0 0 0 0 0 0 0 0 0 0 0 0 0 0 0 0 0 0 0 0 0 0 0 0 0 0 0 0 0 0 0 0 0 0 0 0 0 0 0 0 0 0 0 0 0 0 0 0 0 0 0 0 0 0 0 0 0 0 0 0 0 0 0 0 0 0 0 0 0 0 0 0 0 0 0 0 0 0 0 0 0 0 0 0 0 0 0 0 0 0 0 0 0 0 0 0 0 0 0 0 0 0 0 0 0 0 0 0 0 0 0 1 0 0 0 0 0 0 0 0 0 0 0 0 0 0 0 0 0 0 0 0 0 0 0 0 0 1 0 0 0 0 0 0 0 0 0 0 0 0 0 0 0 0 0 0 0 0 0 0 0 0 0 1 0 0 0 0 0 0 0 0 0 0 0 0 0 0 0 0 0 0 0 0 0 0 0 0 0 0 0 0 0 0 0 0 0 0 0 0 0 0 0 0 0 0 0 0 0 0 0 0 0 0 0 0 0 0 0 0 0 0 0 0 0 0 0 0 0 0 0 0 0 0 0 0 0 0 0 0 0 0 0 0 0 0 0 0 0 0 0 0 0 0 0 0 0 0 0 0 0 0 0 0 0 0 0 0 0 0 0 0 0 0 0 0 0 0 0 0 0 0 0 0 0 0 0 0 0 0 0 0 0 0 0 0 0 0 0 0 0 0 0 0 0 0 0 0 0 0 0 0 0 0 0 0 0 0 0 0 0 0 0 0 0 0 0 0 0 0 0 0 0 0 0 0 0 0 0 0 0 0 0 0 0 0 0 0 0 0 0 0 0 0 0 0 0 0 0 0 0 0 0 0 0 0 0 0 0 0 0 0 0 0 0 0 0 0 0 0 0 0 0 0 0 0 0 0 0 0 0 0 0 0 0 0 0 0 0 0 0 0 0 0 0 0 0 0 0 0 0 0 0 0 0 0 0 0 0 0 0 0 0 0 0 0 0 0 0 0 0 0 0 0 0 0 0 0 0 0 0 0 0 0 0 0 0 0 0 0 0 0 0 0 0 0 0 0 0 0 0 0 0 0 0 0 0 0 0 0 0 0 0 0 0 0 0 0 0 0 0 0 0 0 0 0 0 0 0 0 0 0 0 0 0 0 0 0 0 0 0 0 0 0 0 0 0 0 0 0 0 0 0 0 0 0 0 0 0 0 0 0 0 0 0 0 0 0 0 0 0 0 0 0 0 0 0 0 0 0 0 0 0 0 0 0 0 0 0 0 0 0 0 0 0 0 0 0 0 0 0 0 0 0 0 0 0 0 0 0 0 0 0 0 0 0 0 0 0 0 0 0 0 0 0 0 0 0 0 0 0 0 0 0 0 0 0 0 0 0 0 0 0 0 0 0 0 0 0 0 0 0 0 0 0 0 0 0 0 0 0 0 0 0 0 0 0 0 0 0 0 0 0 0 0 0 0 0 0 0 0 0 0 0 0 0 0 0 0 0 0 0 0 0 0 0 0 0 0 0 0 0 0 0 0 0 0 0 0 0 0 0 0 0 0 0 0 0 0 0 0 0 0 0 0 0 0 0 0 0 0 0 0 0 0 0 0 0 0 0 0 0 0 0 0 0 0 0 0 0 0 0 0 0 0 0 0 0 0 0 0 0 0 0 0 0 0 0 0 0 0 0 0 0 0 1 0 0 0 0 0 0 0 0 0 0 0 0 0 0 0 0 0 0 0 0 0 0 0 0 1 10 0 0 0 0 0 0 0 0 0 0 0 0 0 0 0 0 0 0 0 0 0 0 0 0 1 20 0 0 0 0 0 0 0 0 0 0 0 0 0 0 0 0 0 0 0 0 0 0 0 0 1 14 0 0 0 0 0 0 0 0 0 0 0 0 0 0 0 0 0 0 0 0 0 0 0 0 1 7 0 0 0 0 0 0 0 0 0 0 0 0 0 0 0 0 0 0 0 0 0 0 0 0 1 6 0 0 0 0 0 0 0 0 0 0 0 0 0 0 0 0 0 0 0 0 0 0 0 0 1 3 0 0 0 0 0 0 0 0 0 0 0 0 0 0 0 0 0 0 0 0 0 0 0 0 0 0 0 0 0 0 0 0 0 0 0 0 0 0 0 0 0 0 0 0 0 0 0 0 0 0 0 0 0 0 0 0 0 0 0 0 0 0 0 0 0 0 0 0 0 0 0 0 0 0 0 0 0 0 0 0 0 0 0 0 0 0 0 0 0 0 0 0 0 0 0 0 0 0 0 0 0 0 0 0 0 0 0 0 0 0 0 0 0 0 0 0 0 0 0 0 0 0 0 0 0 0 0 0 0 0 0 0 0 0 0 0 0 0 0 0 0 0 0 0 0 0 0 0 0 0 0 0 0 0 0 0 0 0 0 0 0 0 0 0 0 0 0 0 0 0 0 0 0 0 0 0 0 0 0 0 0 0 0 0 0 0 0 0 0 0 0 0 0 0 0 0 0 0 0 0 0 0 0 0 0 0 0 0 0 0 0 0 0 0 0 0 0 0 0 0 0 0 0 0 0 0 0 0 0 0 0 0 0 0 0 0 0 0 0 0 0 0 0 0 0 0 0 0 0 0 0 0 0 0 0 0 0 0 0 0 0 0 0 0 0 0 0 0 0 0 0 0 0 0 0 0 0 0 0 0 0 0 0 0 0 0 0 0 0 0 0 0 0 0 0 0 0 0 0 0 0 0 0 0 0 0 0 0 0 0 0 0 0 0 0 0 0 0 0 0 0 0 0 0 0 0 0 0 0 0 0 0 0 0 0 0 0 0 0 0 0 0 0 0 0 0 0 0 0 0 0 0 0 0 0 0 0 0 0 0 0 0 0 0 0 0 0 0 0 0 0 0 0 0 0 0 0 0 0 0 0 0 0 0 0 0 0 0 0 0 0 0 0 0 0 0 0 0 0 0 0 0 0 0 0 0 0 0 0 0 0 0 0 0 0 0 0 0 0 0 0 0 0 0 0 0 0 0 0 0 0 0 0 0 0 0 0 0 0 0 0 0 0 0 0 0 0 0 0 0 0 0 0 0 0 0 0 0 0 0 0 0 0 0 0 0 0 0 0 0 0 0 0 0 0 0 0 0 0 0 0 0 0 0 0 0 0 0 0 0 0 0 0 0 0 0 0 0 0 0 0 0 0 0 0 0 0 0 0 0 0 0 0 0 0 0 0 0 1 6 0 0 0 0 0 0 0 0 0 0 0 0 0 0 0 0 0 0 0 0 0 0 0 1 4 33 0 0 0 0 0 0 0 0 0 0 0 0 0 0 0 0 0 0 0 0 0 0 0 1 5 48 0 0 0 0 0 0 0 0 0 0 0 0 0 0 0 0 0 0 0 0 0 0 0 1 4 33 0 0 0 0 0 0 0 0 0 0 0 0 0 0 0 0 0 0 0 0 0 0 0 1 4 28 0 0 0 0 0 0 0 0 0 0 0 0 0 0 0 0 0 0 0 0 0 0 0 1 6 28 0 0 0 0 0 0 0 0 0 0 0 0 0 0 0 0 0 0 0 0 0 0 0 0 5 16 0 0 0 0 0 0 0 0 0 0 0 0 0 0 0 0 0 0 0 0 0 0 0 0 1 4 0 0 0 0 0 0 0 0 0 0 0 0 0 0 0 0 0 0 0 0 0 0 0 0 0 0 0 0 0 0 0 0 0 0 0 0 0 0 0 0 0 0 0 0 0 0 0 0 0 0 0 0 0 0 0 0 0 0 0 0 0 0 0 0 0 0 0 0 0 0 0 0 0 0 0 0 0 0 0 0 0 0 0 0 0 0 0 0 0 0 0 0 0 0 0 0 0 0 0 0 0 0 0 0 0 0 0 0 0 0 0 0 0 0 0 0 0 0 0 0 0 0 0 0 0 0 0 0 0 0 0 0 0 0 0 0 0 0 0 0 0 0 0 0 0 0 0 0 0 0 0 0 0 0 0 0 0 0 0 0 0 0 0 0 0 0 0 0 0 0 0 0 0 0 0 0 0 0 0 0 0 0 0 0 0 0 0 0 0 0 0 0 0 0 0 0 0 0 0 0 0 0 0 0 0 0 0 0 0 0 0 0 0 0 0 0 0 0 0 0 0 0 0 0 0 0 0 0 0 0 0 0 0 0 0 0 0 0 0 0 0 0 0 0 0 0 0 0 0 0 0 0 0 0 0 0 0 0 0 0 0 0 0 0 0 0 0 0 0 0 0 0 0 0 0 0 0 0 0 0 0 0 0 0 0 0 0 0 0 0 0 0 0 0 0 0 0 0 0 0 0 0 0 0 0 0 0 0 0 0 0 0 0 0 0 0 0 0 0 0 0 0 0 0 0 0 0 0 0 0 0 0 0 0 0 0 0 0 0 0 0 0 0 0 0 0 0 0 0 0 0 0 0 0 0 0 0 0 0 0 0 0 0 0 0 0 0 0 0 0 0 0 0 0 0 0 0 0 0 0 0 0 0 0 0 0 0 0 0 0 0 0 0 0 0 0 0 0 0 0 0 0 0 0 0 0 0 0 0 0 0 0 0 0 0 0 0 0 0 0 0 0 0 0 0 0 0 0 0 0 0 0 0 0 0 0 0 0 0 0 0 0 0 0 0 0 0 0 0 0 0 0 0 0 0 0 0 0 0 0 0 0 0 0 0 0 1 2 0 0 0 0 0 0 0 0 0 0 0 0 0 0 0 0 0 0 0 0 0 0 0 3 7 17 0 0 0 0 0 0 0 0 0 0 0 0 0 0 0 0 0 0 0 0 0 0 3 10 35 81 0 0 0 0 0 0 0 0 0 0 0 0 0 0 0 0 0 0 0 0 0 0 4 12 48 125 0 0 0 0 0 0 0 0 0 0 0 0 0 0 0 0 0 0 0 0 0 0 3 7 39 127 0 0 0 0 0 0 0 0 0 0 0 0 0 0 0 0 0 0 0 0 0 0 1 4 46 141 0 0 0 0 0 0 0 0 0 0 0 0 0 0 0 0 0 0 0 0 0 0 1 5 55 140 0 0 0 0 0 0 0 0 0 0 0 0 0 0 0 0 0 0 0 0 0 0 1 5 45 96 0 0 0 0 0 0 0 0 0 0 0 0 0 0 0 0 0 0 0 0 0 0 0 3 19 36 0 0 0 0 0 0 0 0 0 0 0 0 0 0 0 0 0 0 0 0 0 0 0 0 0 0 0 0 0 0 0 0 0 0 0 0 0 0 0 0 0 0 0 0 0 0 0 0 0 0 0 0 0 0 0 0 0 0 0 0 0 0 0 0 0 0 0 0 0 0 0 0 0 0 0 0 0 0 0 0 0 0 0 0 0 0 0 0 0 0 0 0 0 0 0 0 0 0 0 0 0 0 0 0 0 0 0 0 0 0 0 0 0 0 0 0 0 0 0 0 0 0 0 0 0 0 0 0 0 0 0 0 0 0 0 0 0 0 0 0 0 0 0 0 0 0 0 0 0 0 0 0 0 0 0 0 0 0 0 0 0 0 0 0 0 0 0 0 0 0 0 0 0 0 0 0 0 0 0 0 0 0 0 0 0 0 0 0 0 0 0 0 0 0 0 0 0 0 0 0 0 0 0 0 0 0 0 0 0 0 0 0 0 0 0 0 0 0 0 0 0 0 0 0 0 0 0 0 0 0 0 0 0 0 0 0 0 0 0 0 0 0 0 0 0 0 0 0 0 0 0 0 0 0 0 0 0 0 0 0 0 0 0 0 0 0 0 0 0 0 0 0 0 0 0 0 0 0 0 0 0 0 0 0 0 0 0 0 0 0 0 0 0 0 0 0 0 0 0 0 0 0 0 0 0 0 0 0 0 0 0 0 0 0 0 0 0 0 0 0 0 0 0 0 0 0 0 0 0 0 0 0 0 0 0 0 0 0 0 0 0 0 0 0 0 0 0 0 0 0 0 0 0 0 0 0 0 0 0 0 0 0 0 0 0 0 0 0 0 0 0 0 0 0 0 0 0 0 0 0 0 0 0 0 0 0 0 0 0 0 0 0 0 0 0 0 0 0 0 0 0 0 0 0 0 0 0 0 0 0 0 0 0 0 0 0 0 0 0 0 0 0 0 0 0 0 0 0 0 0 0 0 0 0 0 0 0 0 0 0 0 1 0 0 0 0 0 0 0 0 0 0 0 0 0 0 0 0 0 0 0 0 0 0 0 1 3 5 0 0 0 0 0 0 0 0 0 0 0 0 0 0 0 0 0 0 0 0 0 0 2 11 20 25 0 0 0 0 0 0 0 0 0 0 0 0 0 0 0 0 0 0 0 0 0 1 14 39 75 112 0 0 0 0 0 0 0 0 0 0 0 0 0 0 0 0 0 0 0 0 0 1 21 56 126 194 0 0 0 0 0 0 0 0 0 0 0 0 0 0 0 0 0 0 0 0 0 1 12 37 117 211 0 0 0 0 0 0 0 0 0 0 0 0 0 0 0 0 0 0 0 0 0 0 5 15 114 218 0 0 0 0 0 0 0 0 0 0 0 0 0 0 0 0 0 0 0 0 0 0 3 16 122 210 0 0 0 0 0 0 0 0 0 0 0 0 0 0 0 0 0 0 0 0 0 0 2 13 85 156 0 0 0 0 0 0 0 0 0 0 0 0 0 0 0 0 0 0 0 0 0 0 0 6 36 71 0 0 0 0 0 0 0 0 0 0 0 0 0 0 0 0 0 0 0 0 0 0 0 0 0 0 0 0 0 0 0 0 0 0 0 0 0 0 0 0 0 0 0 0 0 0 0 0 0 0 0 0 0 0 0 0 0 0 0 0 0 0 0 0 0 0 0 0 0 0 0 0 0 0 0 0 0 0 0 0 0 0 0 0 0 0 0 0 0 0 0 0 0 0 0 0 0 0 0 0 0 0 0 0 0 0 0 0 0 0 0 0 0 0 0 0 0 0 0 0 0 0 0 0 0 0 0 0 0 0 0 0 0 0 0 0 0 0 0 0 0 0 0 0 0 0 0 0 0 0 0 0 0 0 0 0 0 0 0 0 0 0 0 0 0 0 0 0 0 0 0 0 0 0 0 0 0 0 0 0 0 0 0 0 0 0 0 0 0 0 0 0 0 0 0 0 0 0 0 0 0 0 0 0 0 0 0 0 0 0 0 0 0 0 0 0 0 0 0 0 0 0 0 0 0 0 0 0 0 0 0 0 0 0 0 0 0 0 0 0 0 0 0 0 0 0 0 0 0 0 0 0 0 0 0 0 0 0 0 0 0 0 0 0 0 0 0 0 0 0 0 0 0 0 0 0 0 0 0 0 0 0 0 0 0 0 0 0 0 0 0 0 0 0 0 0 0 0 0 0 0 0 0 0 0 0 0 0 0 0 0 0 0 0 0 0 0 0 0 0 0 0 0 0 0 0 0 0 0 0 0 0 0 0 0 0 0 0 0 0 0 0 0 0 0 0 0 0 0 0 0 0 0 0 0 0 0 0 0 0 0 0 0 0 0 0 0 0 0 0 0 0 0 0 0 0 0 0 0 0 0 0 0 0 0 0 0 0 0 0 0 0 0 0 0 0 0 0 0 0 0 0 0 0 0 0 0 0 0 0 0 0 0 0 0 1 0 0 0 0 0 0 0 0 0 0 0 0 0 0 0 0 0 0 0 0 0 0 0 1 2 3 0 0 0 0 0 0 0 0 0 0 0 0 0 0 0 0 0 0 0 0 0 0 1 3 8 10 0 0 0 0 0 0 0 0 0 0 0 0 0 0 0 0 0 0 0 0 0 0 5 20 35 35 0 0 0 0 0 0 0 0 0 0 0 0 0 0 0 0 0 0 0 0 0 2 23 63 94 104 0 0 0 0 0 0 0 0 0 0 0 0 0 0 0 0 0 0 0 0 0 2 34 103 173 209 0 0 0 0 0 0 0 0 0 0 0 0 0 0 0 0 0 0 0 0 0 4 26 86 175 232 0 0 0 0 0 0 0 0 0 0 0 0 0 0 0 0 0 0 0 0 0 8 25 52 155 233 0 0 0 0 0 0 0 0 0 0 0 0 0 0 0 0 0 0 0 0 0 6 19 59 167 229 0 0 0 0 0 0 0 0 0 0 0 0 0 0 0 0 0 0 0 0 0 1 6 47 139 202 0 0 0 0 0 0 0 0 0 0 0 0 0 0 0 0 0 0 0 0 0 0 1 15 70 127 0 0 0 0 0 0 0 0 0 0 0 0 0 0 0 0 0 0 0 0 0 0 0 0 0 0 0 0 0 0 0 0 0 0 0 0 0 0 0 0 0 0 0 0 0 0 0 0 0 0 0 0 0 0 0 0 0 0 0 0 0 0 0 0 0 0 0 0 0 0 0 0 0 0 0 0 0 0 0 0 0 0 0 0 0 0 0 0 0 0 0 0 0 0 0 0 0 0 0 0 0 0 0 0 0 0 0 0 0 0 0 0 0 0 0 0 0 0 0 0 0 0 0 0 0 0 0 0 0 0 0 0 0 0 0 0 0 0 0 0 0 0 0 0 0 0 0 0 0 0 0 0 0 0 0 0 0 0 0 0 0 0 0 0 0 0 0 0 0 0 0 0 0 0 0 0 0 0 0 0 0 0 0 0 0 0 0 0 0 0 0 0 0 0 0 0 0 0 0 0 0 0 0 0 0 0 0 0 0 0 0 0 0 0 0 0 0 0 0 0 0 0 0 0 0 0 0 0 0 0 0 0 0 0 0 0 0 0 0 0 0 0 0 0 0 0 0 0 0 0 0 0 0 0 0 0 0 0 0 0 0 0 0 0 0 0 0 0 0 0 0 0 0 0 0 0 0 0 0 0 0 0 0 0 0 0 0 0 0 0 0 0 0 0 0 0 0 0 0 0 0 0 0 0 0 0 0 0 0 0 0 0 0 0 0 0 0 0 0 0 0 0 0 0 0 0 0 0 0 0 0 0 0 0 0 0 0 0 0 0 0 0 0 0 0 0 0 0 0 0 0 0 0 0 0 0 0 0 0 0 0 0 0 0 0 0 0 0 0 0 0 0 0 0 0 0 0 0 0 0 0 0 0 0 0 0 0 0 0 0 0 0 0 0 0 0 0 0 0 0 0 0 0 0 0 0 0 0 0 0 0 0 0 0 1 1 0 0 0 0 0 0 0 0 0 0 0 0 0 0 0 0 0 0 0 0 0 0 0 2 5 5 0 0 0 0 0 0 0 0 0 0 0 0 0 0 0 0 0 0 0 0 0 0 3 8 14 16 0 0 0 0 0 0 0 0 0 0 0 0 0 0 0 0 0 0 0 0 0 1 8 26 45 45 0 0 0 0 0 0 0 0 0 0 0 0 0 0 0 0 0 0 0 0 0 2 20 66 98 93 0 0 0 0 0 0 0 0 0 0 0 0 0 0 0 0 0 0 0 0 0 3 36 120 182 198 0 0 0 0 0 0 0 0 0 0 0 0 0 0 0 0 0 0 0 0 0 8 51 128 196 228 0 0 0 0 0 0 0 0 0 0 0 0 0 0 0 0 0 0 0 0 0 17 66 113 178 231 0 0 0 0 0 0 0 0 0 0 0 0 0 0 0 0 0 0 0 0 0 12 49 114 193 233 0 0 0 0 0 0 0 0 0 0 0 0 0 0 0 0 0 0 0 0 0 1 13 78 178 227 0 0 0 0 0 0 0 0 0 0 0 0 0 0 0 0 0 0 0 0 0 0 2 21 100 166 0 0 0 0 0 0 0 0 0 0 0 0 0 0 0 0 0 0 0 0 0 0 0 0 0 0 0 0 0 0 0 0 0 0 0 0 0 0 0 0 0 0 0 0 0 0 0 0 0 0 0 0 0 0 0 0 0 0 0 0 0 0 0 0 0 0 0 0 0 0 0 0 0 0 0 0 0 0 0 0 0 0 0 0 0 0 0 0 0 0 0 0 0 0 0 0 0 0 0 0 0 0 0 0 0 0 0 0 0 0 0 0 0 0 0 0 0 0 0 0 0 0 0 0 0 0 0 0 0 0 0 0 0 0 0 0 0 0 0 0 0 0 0 0 0 0 0 0 0 0 0 0 1 1 0 0 0 0 0 0 0 0 0 0 0 0 0 0 0 0 0 0 0 0 0 0 0 1 1 1 1 1 0 0 0 0 0 0 0 0 0 0 0 0 0 0 0 0 0 0 0 0 0 1 1 1 1 2 0 0 0 0 0 0 0 0 0 0 0 0 0 0 0 0 0 0 0 0 0 1 1 1 1 2 0 0 0 0 0 0 0 0 0 0 0 0 0 0 0 0 0 0 0 0 0 1 1 1 1 2 0 0 0 0 0 0 0 0 0 0 0 0 0 0 0 0 0 0 0 0 0 0 0 1 1 1 0 0 0 0 0 0 0 0 0 0 0 0 0 0 0 0 0 0 0 0 0 0 0 0 0 1 0 0 0 0 0 0 0 0 0 0 0 0 0 0 0 0 0 0 0 0 0 0 0 0 0 0 0 0 0 0 0 0 0 0 0 0 0 0 0 0 0 0 0 0 0 0 0 0 0 0 0 0 0 0 0 0 0 0 0 0 0 0 0 0 0 0 0 0 0 0 0 0 0 0 0 0 0 1 0 0 0 0 0 0 0 0 0 0 0 0 0 0 0 0 0 0 0 0 0 0 0 0 2 3 0 0 0 0 0 0 0 0 0 0 0 0 0 0 0 0 0 0 0 0 0 1 1 6 11 13 0 0 0 0 0 0 0 0 0 0 0 0 0 0 0 0 0 0 0 1 1 1 7 21 31 31 0 0 0 0 0 0 0 0 0 0 0 0 0 0 0 0 0 0 0 1 1 2 15 39 60 61 0 0 0 0 0 0 0 0 0 0 0 0 0 0 0 0 0 0 0 0 1 3 24 67 102 102 0 0 0 0 0 0 0 0 0 0 0 0 0 0 0 0 0 0 0 0 1 6 50 124 174 183 0 0 0 0 0 0 0 0 0 0 0 0 0 0 0 0 0 0 0 0 1 17 96 162 198 218 0 0 0 0 0 0 0 0 0 0 0 0 0 0 0 0 0 0 0 0 1 35 132 180 201 227 0 0 0 0 0 0 0 0 0 0 0 0 0 0 0 0 0 0 0 0 1 25 109 179 216 235 0 0 0 0 0 0 0 0 0 0 0 0 0 0 0 0 0 0 0 0 0 4 37 122 202 232 0 0 0 0 0 0 0 0 0 0 0 0 0 0 0 0 0 0 0 0 0 1 4 32 139 187 0 0 0 0 0 0 0 0 0 0 0 0 0 0 1 1 0 0 0 1 1 1 1 1 1 1 0 0 0 0 0 0 0 0 0 0 0 0 0 0 1 1 1 1 1 2 2 3 3 3 3 3 0 0 1 1 1 1 1 1 1 1 1 1 1 1 1 1 1 1 2 2 3 4 5 4 4 6 0 0 1 1 1 1 1 1 1 1 1 1 1 1 1 1 1 2 2 3 4 5 6 6 6 8 0 0 1 1 1 1 1 1 1 1 1 1 1 1 2 2 2 3 3 3 4 5 6 7 6 7 0 0 1 1 1 1 1 1 1 1 1 1 1 2 2 2 2 3 4 4 5 6 8 8 6 6 0 0 1 1 1 1 1 1 1 1 1 1 1 1 2 2 3 4 4 5 7 8 9 8 7 7 0 0 0 1 1 1 1 1 1 1 1 1 1 1 2 2 3 4 4 5 7 8 9 8 7 9 0 0 0 1 1 1 1 1 1 1 1 1 1 1 2 2 4 4 4 4 6 8 9 8 8 10 0 0 0 1 1 1 1 1 1 1 1 1 1 1 2 2 4 4 4 4 6 8 8 7 7 8 0 0 0 1 1 1 1 1 1 2 2 2 2 2 2 2 3 4 4 4 5 7 6 5 4 5 0 0 0 1 1 1 1 1 2 2 3 3 3 2 2 2 3 3 3 3 4 6 5 3 3 4 0 0 0 1 1 1 1 1 2 3 4 4 3 2 2 2 2 3 3 3 4 5 4 2 2 4 0 0 0 0 1 1 1 1 2 3 4 4 3 2 2 2 3 3 3 3 3 4 3 2 3 7 0 0 0 1 1 1 1 1 2 3 4 4 3 2 2 2 3 4 3 3 3 3 3 3 6 11 0 0 0 1 1 1 1 1 1 2 3 3 3 2 2 2 3 3 3 3 3 3 3 5 14 26 0 0 1 1 1 1 1 1 1 1 2 2 3 3 3 2 2 2 3 3 4 5 5 16 32 47 0 1 1 1 1 1 1 1 1 1 1 2 2 3 3 3 3 3 3 4 5 7 14 43 65 70 0 0 1 1 1 1 1 1 1 1 1 2 2 2 2 2 3 3 4 4 5 8 25 62 100 105 0 0 1 1 1 1 1 1 1 1 1 2 2 1 1 2 2 2 3 3 5 11 36 80 130 150 0 0 1 1 1 1 1 1 1 1 1 2 2 1 1 1 2 2 1 2 6 15 65 128 176 199 0 1 1 1 1 1 1 1 1 2 3 3 3 2 2 2 2 1 1 1 7 27 121 184 210 225 0 1 1 1 1 1 1 1 2 3 5 5 4 3 2 2 2 2 1 1 6 42 162 215 227 236 1 1 1 1 1 1 1 2 2 3 4 3 3 2 2 2 2 1 1 1 3 30 135 207 231 239 1 2 1 1 1 1 1 1 1 2 2 2 2 2 3 2 2 2 2 1 2 8 49 135 211 234 1 1 1 1 1 1 1 1 1 1 1 1 2 3 4 4 3 3 3 2 3 6 13 43 164 198 1 3 4 4 3 2 3 3 3 4 4 4 6 7 6 6 7 12 23 32 36 40 47 35 15 11 1 4 5 6 6 7 8 8 7 6 6 7 7 8 8 9 11 21 36 46 47 50 52 45 33 33 2 5 7 8 8 8 9 9 8 8 8 8 8 10 12 14 17 28 42 52 57 60 57 48 45 58 2 5 7 7 7 7 7 8 8 8 8 8 8 10 14 17 21 28 35 42 52 57 55 49 48 61 3 5 8 8 8 8 7 7 7 7 7 8 8 10 15 21 27 32 35 38 45 51 53 48 44 46 4 5 8 9 9 9 8 7 6 6 7 8 9 12 17 24 31 35 37 40 47 53 53 47 39 38 4 5 7 8 10 10 10 8 7 7 7 8 11 16 21 28 35 39 42 49 56 57 52 45 37 34 5 6 8 9 11 12 12 11 9 8 8 10 14 19 25 30 37 43 47 54 61 62 57 50 40 35 5 7 8 9 11 12 13 12 11 11 11 14 18 21 25 28 36 44 47 53 60 62 57 49 41 43 5 6 7 8 10 12 14 14 14 15 18 21 23 23 25 28 36 43 45 50 54 53 46 38 34 39 5 5 7 8 9 11 14 16 18 21 25 28 29 26 25 28 35 40 41 44 46 44 37 28 23 27 5 6 7 8 9 11 14 17 21 25 29 30 27 22 22 27 33 35 35 38 40 38 30 22 19 29 4 5 6 7 8 10 13 18 24 27 27 24 19 16 17 23 28 30 32 34 35 32 27 22 24 43 4 5 6 7 8 10 14 19 25 28 25 20 16 14 16 20 24 28 31 31 30 29 27 27 37 59 3 6 7 7 9 11 14 17 22 26 24 20 16 15 15 17 23 29 31 30 27 26 27 31 44 60 3 8 9 8 9 10 12 14 18 22 22 19 16 15 15 17 22 28 31 30 26 24 27 38 53 66 9 13 13 10 10 10 11 13 15 17 18 17 17 16 16 19 23 27 29 29 27 25 29 50 70 94 9 13 13 10 10 11 11 13 15 16 17 18 18 16 17 20 25 28 29 28 29 33 43 77 102 129 4 9 10 9 10 11 11 12 14 15 18 21 18 14 14 18 24 27 27 25 31 46 66 103 144 169 2 6 8 9 9 10 11 11 11 13 19 22 17 12 12 15 20 23 21 22 39 66 88 116 170 200 2 5 8 10 11 13 13 11 10 12 17 20 17 13 12 15 18 17 14 19 46 78 112 149 195 220 2 6 9 11 13 15 16 14 13 16 19 20 17 14 13 14 16 15 10 15 48 88 153 202 223 232 6 11 10 11 13 14 15 15 16 20 22 19 15 13 13 14 16 15 11 15 44 89 177 227 238 240 9 15 12 11 11 11 12 14 15 17 17 15 13 13 14 15 16 14 11 15 33 63 139 206 233 241 10 18 14 12 11 10 11 13 14 12 11 12 14 15 16 18 18 15 13 17 26 37 61 118 203 233 8 16 14 13 12 11 11 12 12 10 9 12 16 18 20 23 23 19 17 23 32 35 43 62 152 190 2 16 19 20 18 12 22 35 37 32 23 23 31 34 35 37 44 61 68 68 74 100 120 109 97 84 18 28 33 35 35 37 42 46 45 39 37 37 38 44 52 59 70 90 111 123 125 125 126 124 125 133 21 33 39 42 43 43 46 50 48 44 41 39 41 54 71 81 91 107 124 134 137 134 134 138 146 152 19 34 42 42 41 38 39 42 42 40 37 35 39 54 74 87 96 104 114 123 129 131 136 142 145 143 19 32 42 44 43 40 38 35 34 35 34 36 41 53 72 87 100 109 113 117 122 130 138 140 134 124 18 30 40 44 46 45 41 35 32 32 35 42 53 65 76 87 99 108 114 121 130 138 141 137 125 113 18 30 38 43 49 51 48 41 36 34 35 46 64 78 87 93 100 111 124 136 142 142 139 135 120 103 10 28 39 45 52 54 53 47 42 43 44 53 70 82 89 93 105 122 136 144 147 146 143 137 120 100 11 29 40 45 50 54 55 53 52 58 61 67 75 82 87 91 108 129 139 144 146 146 141 130 111 105 12 29 37 43 48 53 56 57 62 71 78 81 83 83 85 94 112 127 134 138 138 134 125 109 92 95 13 29 36 43 48 52 58 61 69 80 89 93 91 85 85 95 108 118 125 131 130 123 110 90 75 85 13 29 35 40 45 50 59 64 73 82 89 88 82 74 78 89 98 105 115 124 124 115 98 76 74 109 16 28 33 36 41 49 60 67 74 79 80 74 64 60 67 80 88 96 107 114 114 107 92 79 97 142 21 30 34 36 44 54 66 72 75 76 72 64 57 55 61 73 85 96 104 106 103 100 95 94 121 153 24 35 38 40 48 57 68 71 74 76 72 63 56 53 60 78 97 108 109 104 97 93 93 102 125 142 29 42 43 42 47 52 61 64 68 71 68 61 54 54 67 92 111 117 112 104 94 85 85 100 120 133 38 50 50 45 46 47 54 57 62 64 63 59 55 58 75 101 117 117 110 103 93 82 78 99 125 157 44 52 50 46 46 47 51 55 59 60 60 59 57 60 76 99 112 110 103 97 93 90 94 120 143 184 30 44 44 44 44 46 49 52 54 54 57 61 57 57 71 89 99 99 94 89 93 112 133 153 175 205 16 35 39 42 43 44 48 48 47 48 57 62 55 52 62 76 88 89 82 77 94 135 164 174 200 220 13 30 37 45 47 51 54 47 43 44 53 59 54 52 58 69 81 80 66 63 100 155 185 196 214 227 21 32 38 49 56 61 65 55 47 47 51 54 52 50 52 61 73 73 59 61 119 176 204 220 228 231 38 46 45 51 59 61 63 57 54 55 54 50 46 43 45 56 73 77 63 63 116 170 208 230 236 236 47 55 52 53 55 52 52 50 52 53 50 45 42 43 50 67 82 78 64 65 96 140 181 212 229 236 51 60 57 57 54 48 47 47 48 45 42 42 43 50 67 86 90 74 66 74 97 128 148 160 197 226 39 59 60 58 54 47 45 44 44 40 38 40 45 58 83 99 93 77 78 91 103 125 147 147 158 175 45 73 78 77 75 73 83 91 90 82 73 79 99 113 120 125 133 144 145 141 143 157 168 169 175 156 75 85 90 89 89 91 96 97 94 89 86 91 106 124 133 139 147 157 166 169 171 170 172 179 188 193 80 90 96 95 95 94 96 97 95 92 90 92 106 130 143 148 154 162 170 174 175 174 180 193 200 199 78 91 97 95 91 86 86 87 87 87 90 94 107 126 140 147 151 158 165 171 174 179 189 198 199 193 77 89 98 98 94 88 84 80 79 83 93 104 113 123 135 143 154 166 173 177 181 188 195 197 193 186 74 86 96 99 99 92 86 80 78 84 98 112 121 127 134 147 166 180 186 189 193 195 196 194 189 183 72 84 94 98 102 100 94 88 86 92 102 114 126 134 146 164 181 190 195 198 198 195 191 190 186 180 62 81 93 99 105 108 108 106 106 109 111 116 126 138 159 177 189 195 198 198 195 190 187 186 183 181 62 81 95 100 108 115 121 122 124 126 125 124 127 141 165 182 192 197 196 194 191 187 183 178 176 181 64 82 93 100 110 120 126 128 130 131 131 129 129 141 165 183 193 195 191 188 186 181 175 166 165 179 65 82 91 98 109 120 127 130 131 132 132 132 130 139 163 183 191 190 187 185 182 176 167 156 159 181 64 79 87 94 106 119 128 130 130 128 128 127 123 134 162 182 187 185 182 182 179 172 161 150 162 193 67 79 86 95 109 122 130 130 125 122 121 117 114 129 161 180 185 181 177 176 174 168 159 155 175 204 72 82 93 105 119 128 131 127 122 118 115 111 110 131 163 180 184 179 174 171 169 167 164 168 187 205 77 88 100 112 123 126 127 123 120 117 113 109 109 133 167 185 188 183 176 171 167 165 167 175 188 199 86 97 105 111 117 118 119 117 115 113 110 105 108 137 173 191 193 187 179 173 168 163 163 172 183 196 89 99 103 104 109 110 113 111 109 108 106 103 108 141 177 193 194 186 179 174 169 163 159 168 183 203 88 93 92 93 101 106 110 108 106 103 102 101 109 143 177 190 189 181 175 172 172 171 172 180 188 210 79 87 86 88 93 100 108 109 105 99 98 99 110 144 173 182 178 171 166 167 174 185 195 199 202 217 67 80 82 86 91 102 111 111 106 99 98 100 112 143 167 172 167 159 153 153 167 192 209 212 217 224 63 78 87 95 101 112 117 111 103 98 98 100 114 143 162 165 160 152 142 138 162 201 218 221 224 227 73 86 100 111 116 119 120 109 100 97 96 97 107 133 154 159 157 150 144 150 184 214 224 227 227 227 99 106 113 118 120 117 115 108 103 100 97 94 95 111 136 154 162 157 150 157 185 210 222 228 229 227 112 116 117 116 115 110 108 105 103 101 97 93 96 114 141 162 169 160 148 152 174 197 212 219 223 225 110 115 117 117 115 110 107 103 102 98 95 96 118 148 169 177 170 156 151 162 182 200 207 203 204 216 85 111 115 116 114 109 107 104 101 96 93 100 134 167 184 185 172 158 160 170 182 198 209 203 190 173 43 63 66 64 63 65 69 68 64 60 58 65 81 95 102 107 111 116 118 118 118 119 120 125 133 114 62 67 69 67 67 69 70 68 65 63 62 67 85 101 107 109 112 116 118 119 119 119 123 132 140 142 65 69 71 69 67 67 67 65 63 63 64 67 84 101 107 107 108 112 115 118 119 122 131 143 147 145 66 69 71 69 65 62 61 59 59 61 67 73 85 97 101 101 103 108 113 118 122 131 143 148 147 144 64 68 72 72 68 62 59 57 57 61 72 84 91 95 97 98 105 118 126 131 136 144 150 149 145 143 63 67 71 73 70 64 59 57 57 64 78 89 91 91 94 106 126 141 147 148 149 150 148 145 143 143 60 65 70 72 72 68 64 62 64 72 82 88 89 90 102 127 148 157 157 155 152 146 140 139 141 144 58 64 70 72 74 76 77 79 82 85 86 86 87 95 121 146 158 159 154 151 146 137 131 132 138 146 57 64 71 73 79 86 92 95 96 95 91 87 86 100 131 153 160 156 147 142 138 131 126 125 134 147 58 64 70 74 82 92 98 100 98 93 88 85 84 101 132 153 159 153 143 137 133 128 123 120 130 149 59 63 68 72 81 92 98 100 96 89 84 82 82 98 130 152 158 152 141 134 131 125 120 117 130 155 57 62 66 70 80 92 99 99 93 85 81 79 79 97 132 154 158 151 139 132 129 123 118 116 132 159 58 61 65 73 86 96 99 96 88 81 78 77 78 100 136 156 158 149 136 130 127 123 119 121 137 158 58 63 73 85 96 99 96 89 83 79 76 75 78 104 140 158 157 145 133 128 126 125 125 131 142 157 61 66 78 91 97 95 90 84 80 77 75 73 78 109 145 160 156 143 133 129 127 127 130 137 144 155 67 72 81 88 91 89 85 80 77 74 72 71 78 114 149 161 155 142 135 131 129 129 131 137 142 154 67 71 75 79 83 84 82 77 73 70 70 69 78 116 151 159 152 141 136 133 132 131 131 136 141 154 61 61 61 66 74 79 81 77 72 69 68 67 78 117 150 156 147 138 135 135 137 140 142 144 144 155 58 59 58 61 66 74 81 80 74 69 66 66 79 119 147 150 140 131 128 132 141 151 157 157 154 161 56 57 57 59 65 76 85 85 79 72 67 66 83 121 144 143 131 120 117 120 135 153 163 165 165 167 54 58 63 67 74 84 88 85 79 73 69 68 87 121 140 138 125 114 110 110 128 155 168 170 170 168 58 66 78 84 86 87 84 78 74 71 69 68 80 110 133 136 126 116 116 126 144 162 171 171 169 166 75 81 89 90 87 84 80 75 73 70 68 67 69 89 117 132 132 123 121 132 148 160 167 169 166 163 85 87 89 87 83 80 78 77 75 72 69 67 72 92 119 136 135 125 118 125 141 154 161 163 161 159 81 84 86 86 84 82 80 78 76 72 70 73 98 129 145 145 133 122 121 132 149 159 160 155 150 153 60 79 82 83 83 83 82 80 77 73 71 79 116 149 158 150 135 126 126 134 147 157 161 154 142 117 0 0 0 0 0 0 0 0 0 0 0 0 0 0 0 0 0 0 0 0 0 0 0 0 0 0 0 0 0 0 0 0 0 0 0 0 0 0 0 0 0 0 0 0 0 0 0 0 0 0 0 0 0 0 0 0 0 0 0 0 0 0 0 0 0 0 0 0 0 0 0 0 0 0 0 0 0 0 0 0 0 0 0 0 0 0 0 0 0 0 0 0 0 0 0 0 0 0 0 0 0 0 0 0 0 0 0 0 0 0 0 0 0 0 0 0 0 0 0 0 0 0 0 0 0 0 0 0 0 0 0 0 0 0 0 0 0 0 0 0 0 0 0 0 0 0 0 0 0 0 0 0 0 0 0 0 0 0 0 0 0 0 0 0 0 0 0 0 0 0 0 0 0 0 0 0 0 0 0 0 0 0 0 0 0 0 0 0 0 0 0 0 0 0 0 0 0 0 0 0 0 0 0 0 0 0 0 0 0 0 0 0 0 0 0 0 0 0 0 0 0 0 0 0 0 0 0 0 0 0 0 0 0 0 0 0 0 0 0 0 0 0 0 0 0 0 0 0 0 0 0 0 0 0 0 0 0 0 0 0 0 0 0 0 0 0 0 0 0 0 0 0 0 0 0 0 0 0 0 0 0 0 0 0 0 0 0 0 0 0 0 0 0 0 0 0 0 0 0 0 0 0 0 0 0 0 0 0 0 0 0 0 0 0 0 0 0 0 0 0 0 0 0 0 0 0 0 0 0 0 0 0 0 0 0 0 0 0 0 0 0 0 0 0 0 0 0 0 0 0 0 0 0 0 0 0 0 0 0 0 0 0 0 0 0 0 0 0 0 0 0 0 0 0 0 0 0 0 0 0 0 0 0 0 0 0 0 0 0 0 0 0 0 0 0 0 0 0 0 0 0 0 0 0 0 0 0 0 0 0 0 0 0 0 0 0 0 0 0 0 0 0 0 0 0 0 0 0 0 0 0 0 0 0 0 0 0 0 0 0 0 0 0 0 0 0 0 0 0 0 0 0 0 0 0 0 0 0 0 0 0 0 0 0 0 0 0 0 0 0 0 0 0 0 0 0 0 0 0 0 0 0 0 0 0 0 0 0 0 0 0 0 0 0 0 0 0 0 0 0 0 0 0 0 0 0 0 0 0 0 0 0 0 0 0 0 0 0 0 0 0 0 0 0 0 0 0 0 0 0 0 0 0 0 0 0 0 0 0 0 0 0 0 0 0 0 0 0 0 0 0 0 0 0 0 0 0 0 0 0 0 0 0 0 0 0 0 0 0 0 0 0 0 0 0 0 0 0 0 0 0 0 0 0 0 0 0 0 0 0 0 0 0 0 0 0 0 0 0 0 0 0 0 0 0 0 0 0 0 0 0 0 0 0 0 0 0 0 0 0 0 0 0 0 0 0 0 0 0 0 0 0 0 0 0 0 0 0 0 0 0 0 0 0 0 0 0 0 0 0 0 0 0 0 0 0 0 0 0 0 0 0 0 0 0 0 0 0 0 0 0 0 0 0 0 0 
</DataArray>
<DataArray Name="HRRPUV" NumberOfComponents="1" type="UInt8" format="ascii">