<?xml version="1.0"?>
<VTKFile type="RectilinearGrid" version="1.0" byte_order="LittleEndian" header_type="UInt64">
<RectilinearGrid WholeExtent="25 50 25 50 0 15">
<Piece Extent="25 50 25 50 0 15">
<Coordinates>
<DataArray type="Float64" Name="Array X-Axis" format="ascii" RangeMin="15.0" RangeMax="30.0">
15.0 15.6 16.2 16.8 17.4 18.0 18.6 19.2 19.8 20.4 21.0 21.6 22.2 22.8 23.4 24.0 24.6 25.2 25.8 26.4 27.0 27.6 28.2 28.8 29.4 30.0 
</DataArray>
<DataArray type="Float64" Name="Array Y-Axis" format="ascii" RangeMin="15.0" RangeMax="30.0">
15.0 15.6 16.2 16.8 17.4 18.0 18.6 19.2 19.8 20.4 21.0 21.6 22.2 22.8 23.4 24.0 24.6 25.2 25.8 26.4 27.0 27.6 28.2 28.8 29.4 30.0 
</DataArray>
<DataArray type="Float64" Name="Array Z-Axis" format="ascii" RangeMin="0.0" RangeMax="9.0">
0.0 0.6 1.2 1.8 2.4 3.0 3.6 4.2 4.8 5.4 6.0 6.6 7.2 7.8 8.4 9.0 
</DataArray>
</Coordinates>
<PointData>
<DataArray Name="SOOT DENSITY" NumberOfComponents="1" type="UInt8" format="ascii">
0 0 0 0 1 1 1 1 0 0 0 0 0 0 0 0 0 0 0 0 0 0 0 0 0 0 0 0 0 0 0 0 0 0 0 0 0 0 0 0 0 0 0 0 0 0 0 0 0 0 0 0 0 0 0 0 0 0 0 0 0 0 0 0 0 0 0 0 0 0 0 0 0 0 0 0 0 0 0 0 0 0 0 0 0 0 0 0 0 0 0 0 0 0 0 0 0 0 0 0 0 0 0 0 0 0 0 0 0 0 0 0 0 0 0 0 0 0 0 0 0 0 0 0 0 0 0 0 0 0 0 0 0 0 0 0 0 0 0 0 0 0 0 0 0 0 0 0 0 0 0 0 0 0 0 0 0 0 0 0 0 0 0 0 0 0 0 0 0 0 0 0 0 0 0 0 0 0 0 0 0 0 0 0 0 0 0 0 0 0 0 0 0 0 0 0 0 0 0 0 0 0 0 0 0 0 0 0 0 0 0 0 0 0 0 0 0 0 0 0 0 0 0 0 0 0 0 0 0 0 0 0 0 0 0 0 0 0 0 0 0 0 0 0 0 0 0 0 0 0 0 0 0 0 0 0 0 0 0 0 0 0 0 0 0 0 0 0 0 0 0 0 0 0 0 0 0 0 0 0 0 0 0 0 0 0 0 0 0 0 0 0 0 0 0 0 0 0 0 0 0 0 0 0 0 0 0 0 0 0 0 0 0 0 0 0 0 0 0 0 0 0 0 0 0 0 0 0 0 0 0 0 0 0 0 0 0 0 0 0 0 0 0 0 0 0 0 0 0 0 0 0 0 0 0 0 0 0 0 0 0 0 0 0 0 0 0 0 0 0 0 0 0 0 0 0 0 0 0 0 0 0 0 0 0 0 0 0 0 0 0 0 0 0 0 0 0 0 0 0 0 0 0 0 0 0 0 0 0 0 0 0 0 0 0 0 0 0 0 0 0 0 0 0 0 0 0 0 0 0 0 0 0 0 0 0 0 0 0 0 0 0 0 0 0 0 0 0 0 0 0 0 0 0 0 0 0 0 0 0 0 0 0 0 0 0 0 0 0 0 0 0 0 0 0 0 0 0 0 0 0 0 0 0 0 0 0 0 0 0 0 0 0 0 0 0 0 0 0 0 0 0 0 0 0 0 0 0 0 0 0 0 0 0 0 0 0 0 0 0 0 0 0 0 0 0 0 0 0 0 0 0 0 0 0 0 0 0 0 0 0 0 0 0 0 0 0 0 0 0 0 0 0 0 0 0 0 0 0 0 0 0 0 0 0 0 0 0 0 0 0 0 0 0 0 0 0 0 0 0 0 0 0 0 0 0 0 0 0 0 0 0 0 0 0 0 0 0 0 0 0 0 0 0 0 0 0 0 0 0 0 0 0 0 0 0 0 0 0 0 0 0 0 0 0 0 0 0 0 0 0 0 0 0 0 0 0 0 0 0 0 0 0 0 0 0 0 0 0 0 0 0 0 0 0 0 0 0 0 0 0 0 0 0 0 0 0 0 0 0 0 0 0 0 0 0 0 0 0 1 3 6 6 3 1 0 0 0 0 0 0 0 0 0 0 0 0 0 0 0 0 0 0 0 0 0 0 1 0 0 0 0 0 0 0 0 0 0 0 0 0 0 0 0 0 0 0 0 0 0 0 0 0 0 0 0 0 0 0 0 0 0 0 0 0 0 0 0 0 0 0 0 0 0 0 0 0 0 0 0 0 0 0 0 0 0 0 0 0 0 0 0 0 0 0 0 0 0 0 0 0 0 0 0 0 0 0 0 0 0 0 0 0 0 0 0 0 0 0 0 0 0 0 0 0 0 0 0 0 0 0 0 0 0 0 0 0 0 0 0 0 0 0 0 0 0 0 0 0 0 0 0 0 0 0 0 0 0 0 0 0 0 0 0 0 0 0 0 0 0 0 0 0 0 0 0 0 0 0 0 0 0 0 0 0 0 0 0 0 0 0 0 0 0 0 0 0 0 0 0 0 0 0 0 0 0 0 0 0 0 0 0 0 0 0 0 0 0 0 0 0 0 0 0 0 0 0 0 0 0 0 0 0 0 0 0 0 0 0 0 0 0 0 0 0 0 0 0 0 0 0 0 0 0 0 0 0 0 0 0 0 0 0 0 0 0 0 0 0 0 0 0 0 0 0 0 0 0 0 0 0 0 0 0 0 0 0 0 0 0 0 0 0 0 0 0 0 0 0 0 0 0 0 0 0 0 0 0 0 0 0 0 0 0 0 0 0 0 0 0 0 0 0 0 0 0 0 0 0 0 0 0 0 0 0 0 0 0 0 0 0 0 0 0 0 0 0 0 0 0 0 0 0 0 0 0 0 0 0 0 0 0 0 0 0 0 0 0 0 0 0 0 0 0 0 0 0 0 0 0 0 0 0 0 0 0 0 0 0 0 0 0 0 0 0 0 0 0 0 0 0 0 0 0 0 0 0 0 0 0 0 0 0 0 0 0 0 0 0 0 0 0 0 0 0 0 0 0 0 0 0 0 0 0 0 0 0 0 0 0 0 0 0 0 0 0 0 0 0 0 0 0 0 0 0 0 0 0 0 0 0 0 0 0 0 0 0 0 0 0 0 0 0 0 0 0 0 0 0 0 0 0 0 0 0 0 0 0 0 0 0 0 0 0 0 0 0 0 0 0 0 0 0 0 0 0 0 0 0 0 0 0 0 0 0 0 0 0 0 0 0 0 0 0 0 0 0 0 0 0 0 0 0 0 0 0 0 0 0 0 0 0 0 0 0 0 0 0 0 0 0 0 0 0 0 0 0 0 0 0 0 0 0 0 0 0 0 0 0 0 0 0 0 0 0 0 0 0 0 0 0 0 0 0 0 0 0 0 0 0 0 0 0 0 0 0 0 0 0 0 0 0 0 0 0 0 0 0 0 0 0 0 0 0 0 0 0 0 0 0 0 0 0 0 0 0 0 0 0 0 0 0 0 0 0 0 0 0 0 0 0 0 0 0 0 0 0 0 0 0 0 0 0 0 0 0 0 0 0 0 0 0 0 0 0 0 0 0 0 0 0 0 0 0 0 4 13 20 21 11 1 0 0 0 0 0 0 0 0 0 0 0 0 0 0 0 0 0 0 0 0 0 1 2 2 1 0 0 0 0 0 0 0 0 0 0 0 0 0 0 0 0 0 0 0 0 0 0 0 0 0 0 0 0 0 0 0 0 0 0 0 0 0 0 0 0 0 0 0 0 0 0 0 0 0 0 0 0 0 0 0 0 0 0 0 0 0 0 0 0 0 0 0 0 0 0 0 0 0 0 0 0 0 0 0 0 0 0 0 0 0 0 0 0 0 0 0 0 0 0 0 0 0 0 0 0 0 0 0 0 0 0 0 0 0 0 0 0 0 0 0 0 0 0 0 0 0 0 0 0 0 0 0 0 0 0 0 0 0 0 0 0 0 0 0 0 0 0 0 0 0 0 0 0 0 0 0 0 0 0 0 0 0 0 0 0 0 0 0 0 0 0 0 0 0 0 0 0 0 0 0 0 0 0 0 0 0 0 0 0 0 0 0 0 0 0 0 0 0 0 0 0 0 0 0 0 0 0 0 0 0 0 0 0 0 0 0 0 0 0 0 0 0 0 0 0 0 0 0 0 0 0 0 0 0 0 0 0 0 0 0 0 0 0 0 0 0 0 0 0 0 0 0 0 0 0 0 0 0 0 0 0 0 0 0 0 0 0 0 0 0 0 0 0 0 0 0 0 0 0 0 0 0 0 0 0 0 0 0 0 0 0 0 0 0 0 0 0 0 0 0 0 0 0 0 0 0 0 0 0 0 0 0 0 0 0 0 0 0 0 0 0 0 0 0 0 0 0 0 0 0 0 0 0 0 0 0 0 0 0 0 0 0 0 0 0 0 0 0 0 0 0 0 0 0 0 0 0 0 0 0 0 0 0 0 0 0 0 0 0 0 0 0 0 0 0 0 0 0 0 0 0 0 0 0 0 0 0 0 0 0 0 0 0 0 0 0 0 0 0 0 0 0 0 0 0 0 0 0 0 0 0 0 0 0 0 0 0 0 0 0 0 0 0 0 0 0 0 0 0 0 0 0 0 0 0 0 0 0 0 0 0 0 0 0 0 0 0 0 0 0 0 0 0 0 0 0 0 0 0 0 0 0 0 0 0 0 0 0 0 0 0 0 0 0 0 0 0 0 0 0 0 0 0 0 0 0 0 0 0 0 0 0 0 0 0 0 0 0 0 0 0 0 0 0 0 0 0 0 0 0 0 0 0 0 0 0 0 0 0 0 0 0 0 0 0 0 0 0 0 0 0 0 0 0 0 0 0 0 0 0 0 0 0 0 0 0 0 0 0 0 0 0 0 0 0 0 0 0 0 0 0 0 0 0 0 0 0 0 0 0 0 0 0 0 0 0 0 0 0 0 0 0 0 0 0 0 0 0 0 0 0 0 0 0 0 0 0 0 0 0 0 0 0 0 0 0 0 0 0 0 0 0 0 0 0 0 0 0 0 0 0 0 0 0 0 0 0 0 0 0 0 0 0 0 0 0 0 0 0 0 0 0 0 0 0 0 0 0 2 3 9 24 36 44 31 7 0 0 0 0 0 0 0 0 0 0 0 0 0 0 0 0 0 0 0 0 0 1 3 5 3 0 0 0 0 0 0 0 0 0 0 0 0 0 0 0 0 0 0 0 0 0 0 0 0 0 0 0 0 0 0 0 0 0 0 0 0 0 0 0 0 0 0 0 0 0 0 0 0 0 0 0 0 0 0 0 0 0 0 0 0 0 0 0 0 0 0 0 0 0 0 0 0 0 0 0 0 0 0 0 0 0 0 0 0 0 0 0 0 0 0 0 0 0 0 0 0 0 0 0 0 0 0 0 0 0 0 0 0 0 0 0 0 0 0 0 0 0 0 0 0 0 0 0 0 0 0 0 0 0 0 0 0 0 0 0 0 0 0 0 0 0 0 0 0 0 0 0 0 0 0 0 0 0 0 0 0 0 0 0 0 0 0 0 0 0 0 0 0 0 0 0 0 0 0 0 0 0 0 0 0 0 0 0 0 0 0 0 0 0 0 0 0 0 0 0 0 0 0 0 0 0 0 0 0 0 0 0 0 0 0 0 0 0 0 0 0 0 0 0 0 0 0 0 0 0 0 0 0 0 0 0 0 0 0 0 0 0 0 0 0 0 0 0 0 0 0 0 0 0 0 0 0 0 0 0 0 0 0 0 0 0 0 0 0 0 0 0 0 0 0 0 0 0 0 0 0 0 0 0 0 0 0 0 0 0 0 0 0 0 0 0 0 0 0 0 0 0 0 0 0 0 0 0 0 0 0 0 0 0 0 0 0 0 0 0 0 0 0 0 0 0 0 0 0 0 0 0 0 0 0 0 0 0 0 0 0 0 0 0 0 0 0 0 0 0 0 0 0 0 0 0 0 0 0 0 0 0 0 0 0 0 0 0 0 0 0 0 0 0 0 0 0 0 0 0 0 0 0 0 0 0 0 0 0 0 0 0 0 0 0 0 0 0 0 0 0 0 0 0 0 0 0 0 0 0 0 0 0 0 0 0 0 0 0 0 0 0 0 0 0 0 0 0 0 0 0 0 0 0 0 0 0 0 0 0 0 0 0 0 0 0 0 0 0 0 0 0 0 0 0 0 0 0 0 0 0 0 0 0 0 0 0 0 0 0 0 0 0 0 0 0 0 0 0 0 0 0 0 0 0 0 0 0 0 0 0 0 0 0 0 0 0 0 0 0 0 0 0 0 0 0 0 0 0 0 0 0 0 0 0 0 0 0 0 0 0 0 0 0 0 0 0 0 0 0 0 0 0 0 0 0 0 0 0 0 0 0 0 0 0 0 0 0 0 0 0 0 0 0 0 0 0 0 0 0 0 0 0 0 0 0 0 0 0 0 0 0 0 0 0 0 0 0 0 0 0 0 0 0 0 0 0 0 0 0 0 0 0 0 0 0 0 0 0 0 0 0 0 0 0 0 0 0 0 0 0 0 0 0 0 0 0 0 0 0 0 0 0 0 0 0 0 0 0 0 0 0 0 0 0 0 0 0 0 0 0 0 0 0 0 0 0 3 41 49 23 27 41 57 43 11 1 0 0 0 0 0 0 0 0 0 0 0 0 0 0 0 0 0 8 9 2 1 4 7 4 0 0 0 0 0 0 0 0 0 0 0 0 0 0 0 0 0 0 0 0 0 0 0 0 0 0 0 0 0 0 0 0 0 0 0 0 0 0 0 0 0 0 0 0 0 0 0 0 0 0 0 0 0 0 0 0 0 0 0 0 0 0 0 0 0 0 0 0 0 0 0 0 0 0 0 0 0 0 0 0 0 0 0 0 0 0 0 0 0 0 0 0 0 0 0 0 0 0 0 0 0 0 0 0 0 0 0 0 0 0 0 0 0 0 0 0 0 0 0 0 0 0 0 0 0 0 0 0 0 0 0 0 0 0 0 0 0 0 0 0 0 0 0 0 0 0 0 0 0 0 0 0 0 0 0 0 0 0 0 0 0 0 0 0 0 0 0 0 0 0 0 0 0 0 0 0 0 0 0 0 0 0 0 0 0 0 0 0 0 0 0 0 0 0 0 0 0 0 0 0 0 0 0 0 0 0 0 0 0 0 0 0 0 0 0 0 0 0 0 0 0 0 0 0 0 0 0 0 0 0 0 0 0 0 0 0 0 0 0 0 0 0 0 0 0 0 0 0 0 0 0 0 0 0 0 0 0 0 0 0 0 0 0 0 0 0 0 0 0 0 0 0 0 0 0 0 0 0 0 0 0 0 0 0 0 0 0 0 0 0 0 0 0 0 0 0 0 0 0 0 0 0 0 0 0 0 0 0 0 0 0 0 0 0 0 0 0 0 0 0 0 0 0 0 0 0 0 0 0 0 0 0 0 0 0 0 0 0 0 0 0 0 0 0 0 0 0 0 0 0 0 0 0 0 0 0 0 0 0 0 0 0 0 0 0 0 0 0 0 0 0 0 0 0 0 0 0 0 0 0 0 0 0 0 0 0 0 0 0 0 0 0 0 0 0 0 0 0 0 0 0 0 0 0 0 0 0 0 0 0 0 0 0 0 0 0 0 0 0 0 0 0 0 0 0 0 0 0 0 0 0 0 0 0 0 0 0 0 0 0 0 0 0 0 0 0 0 0 0 0 0 0 0 0 0 0 0 0 0 0 0 0 0 0 0 0 0 0 0 0 0 0 0 0 0 0 0 0 0 0 0 0 0 0 0 0 0 0 0 0 0 0 0 0 0 0 0 0 0 0 0 0 0 0 0 0 0 0 0 0 0 0 0 0 0 0 0 0 0 0 0 0 0 0 0 0 0 0 0 0 0 0 0 0 0 0 0 0 0 0 0 0 0 0 0 0 0 0 0 0 0 0 0 0 0 0 0 0 0 0 0 0 0 0 0 0 0 0 0 0 0 0 0 0 0 0 0 0 0 0 0 0 0 0 0 0 0 0 0 0 0 0 0 0 0 0 0 0 0 0 0 0 0 0 0 0 0 0 0 0 0 0 0 0 0 0 0 0 0 0 0 0 0 0 0 0 0 0 0 0 0 0 0 0 0 0 0 0 0 0 0 0 24 78 77 34 26 37 64 50 11 3 0 0 0 0 0 0 0 0 0 0 0 0 0 0 0 0 5 14 13 3 2 4 6 4 1 0 0 0 0 0 0 0 0 0 0 0 0 0 0 0 0 0 0 0 0 0 0 0 0 0 0 0 0 0 0 0 0 0 0 0 0 0 0 0 0 0 0 0 0 0 0 0 0 0 0 0 0 0 0 0 0 0 0 0 0 0 0 0 0 0 0 0 0 0 0 0 0 0 0 0 0 0 0 0 0 0 0 0 0 0 0 0 0 0 0 0 0 0 0 0 0 0 0 0 0 0 0 0 0 0 0 0 0 0 0 0 0 0 0 0 0 0 0 0 0 0 0 0 0 0 0 0 0 0 0 0 0 0 0 0 0 0 0 0 0 0 0 0 0 0 0 0 0 0 0 0 0 0 0 0 0 0 0 0 0 0 0 0 0 0 0 0 0 0 0 0 0 0 0 0 0 0 0 0 0 0 0 0 0 0 0 0 0 0 0 0 0 0 0 0 0 0 0 0 0 0 0 0 0 0 0 0 0 0 0 0 0 0 0 0 0 0 0 0 0 0 0 0 0 0 0 0 0 0 0 0 0 0 0 0 0 0 0 0 0 0 0 0 0 0 0 0 0 0 0 0 0 0 0 0 0 0 0 0 0 0 0 0 0 0 0 0 0 0 0 0 0 0 0 0 0 0 0 0 0 0 0 0 0 0 0 0 0 0 0 0 0 0 0 0 0 0 0 0 0 0 0 0 0 0 0 0 0 0 0 0 0 0 0 0 0 0 0 0 0 0 0 0 0 0 0 0 0 0 0 0 0 0 0 0 0 0 0 0 0 0 0 0 0 0 0 0 0 0 0 0 0 0 0 0 0 0 0 0 0 0 0 0 0 0 0 0 0 0 0 0 0 0 0 0 0 0 0 0 0 0 0 0 0 0 0 0 0 0 0 0 0 0 0 0 0 0 0 0 0 0 0 0 0 0 0 0 0 0 0 0 0 0 0 0 0 0 0 0 0 0 0 0 0 0 0 0 0 0 0 0 0 0 0 0 0 0 0 0 0 0 0 0 0 0 0 0 0 0 0 0 0 0 0 0 0 0 0 0 0 0 0 0 0 0 0 0 0 0 0 0 0 0 0 0 0 0 0 0 0 0 0 0 0 0 0 0 0 0 0 0 0 0 0 0 0 0 0 0 0 0 0 0 0 0 0 0 0 0 0 0 0 0 0 0 0 0 0 0 0 0 0 0 0 0 0 0 0 0 0 0 0 0 0 0 0 0 0 0 0 0 0 0 0 0 0 0 0 0 0 0 0 0 0 0 0 0 0 0 0 0 0 0 0 0 0 0 0 0 0 0 0 0 0 0 0 0 0 0 0 0 0 0 0 0 0 0 0 0 0 0 0 0 0 0 0 0 0 0 0 0 0 0 0 0 0 0 0 0 0 0 0 0 0 0 0 0 0 0 0 0 0 0 0 0 0 0 0 0 0 0 0 0 0 0 0 0 0 0 0 0 55 95 71 37 28 31 56 46 11 5 1 0 0 0 0 0 0 0 0 0 0 0 0 0 0 0 12 22 18 6 3 3 4 3 1 0 0 0 0 0 0 0 0 0 0 0 0 0 0 0 0 0 1 5 6 1 0 0 0 0 0 0 0 0 0 0 0 0 0 0 0 0 0 0 0 0 0 0 0 0 0 0 0 0 0 0 0 0 0 0 0 0 0 0 0 0 0 0 0 0 0 0 0 0 0 0 0 0 0 0 0 0 0 0 0 0 0 0 0 0 0 0 0 0 0 0 0 0 0 0 0 0 0 0 0 0 0 0 0 0 0 0 0 0 0 0 0 0 0 0 0 0 0 0 0 0 0 0 0 0 0 0 0 0 0 0 0 0 0 0 0 0 0 0 0 0 0 0 0 0 0 0 0 0 0 0 0 0 0 0 0 0 0 0 0 0 0 0 0 0 0 0 0 0 0 0 0 0 0 0 0 0 0 0 0 0 0 0 0 0 0 0 0 0 0 0 0 0 0 0 0 0 0 0 0 0 0 0 0 0 0 0 0 0 0 0 0 0 0 0 0 0 0 0 0 0 0 0 0 0 0 0 0 0 0 0 0 0 0 0 0 0 0 0 0 0 0 0 0 0 0 0 0 0 0 0 0 0 0 0 0 0 0 0 0 0 0 0 0 0 0 0 0 0 0 0 0 0 0 0 0 0 0 0 0 0 0 0 0 0 0 0 0 0 0 0 0 0 0 0 0 0 0 0 0 0 0 0 0 0 0 0 0 0 0 0 0 0 0 0 0 0 0 0 0 0 0 0 0 0 0 0 0 0 0 0 0 0 0 0 0 0 0 0 0 0 0 0 0 0 0 0 0 0 0 0 0 0 0 0 0 0 0 0 0 0 0 0 0 0 0 0 0 0 0 0 0 0 0 0 0 0 0 0 0 0 0 0 0 0 0 0 0 0 0 0 0 0 0 0 0 0 0 0 0 0 0 0 0 0 0 0 0 0 0 0 0 0 0 0 0 0 0 0 0 0 0 0 0 0 0 0 0 0 0 0 0 0 0 0 0 0 0 0 0 0 0 0 0 0 0 0 0 0 0 0 0 0 0 0 0 0 0 0 0 0 0 0 0 0 0 0 0 0 0 0 0 0 0 0 0 0 0 0 0 0 0 0 0 0 0 0 0 0 0 0 0 0 0 0 0 0 0 0 0 0 0 0 0 0 0 0 0 0 0 0 0 0 0 0 0 0 0 0 0 0 0 0 0 0 0 0 0 0 0 0 0 0 0 0 0 0 0 0 0 0 0 0 0 0 0 0 0 0 0 0 0 0 0 0 0 0 0 0 0 0 0 0 0 0 0 0 0 0 0 0 0 0 0 0 0 0 0 0 0 0 0 0 0 0 0 0 0 0 0 0 0 0 0 0 0 0 0 0 0 0 0 0 0 0 0 0 0 0 0 0 0 0 0 0 0 0 0 0 0 0 0 0 0 0 0 0 0 0 0 0 0 0 0 0 0 0 0 0 0 0 107 151 111 62 34 27 31 28 21 16 3 0 0 0 0 0 0 0 0 0 0 0 0 0 0 0 29 58 57 25 5 3 3 3 3 2 0 0 0 0 0 0 0 0 0 0 0 0 0 0 0 0 2 12 15 5 0 0 0 0 0 0 0 0 0 0 0 0 0 0 0 0 0 0 0 0 0 0 0 0 0 0 0 0 0 0 0 0 0 0 0 0 0 0 0 0 0 0 0 0 0 0 0 0 0 0 0 0 0 0 0 0 0 0 0 0 0 0 0 0 0 0 0 0 0 0 0 0 0 0 0 0 0 0 0 0 0 0 0 0 0 0 0 0 0 0 0 0 0 0 0 0 0 0 0 0 0 0 0 0 0 0 0 0 0 0 0 0 0 0 0 0 0 0 0 0 0 0 0 0 0 0 0 0 0 0 0 0 0 0 0 0 0 0 0 0 0 0 0 0 0 0 0 0 0 0 0 0 0 0 0 0 0 0 0 0 0 0 0 0 0 0 0 0 0 0 0 0 0 0 0 0 0 0 0 0 0 0 0 0 0 0 0 0 0 0 0 0 0 0 0 0 0 0 0 0 0 0 0 0 0 0 0 0 0 0 0 0 0 0 0 0 0 0 0 0 0 0 0 0 0 0 0 0 0 0 0 0 0 0 0 0 0 0 0 0 0 0 0 0 0 0 0 0 0 0 0 0 0 0 0 0 0 0 0 0 0 0 0 0 0 0 0 0 0 0 0 0 0 0 0 0 0 0 0 0 0 0 0 0 0 0 0 0 0 0 0 0 0 0 0 0 0 0 0 0 0 0 0 0 0 0 0 0 0 0 0 0 0 0 0 0 0 0 0 0 0 0 0 0 0 0 0 0 0 0 0 0 0 0 0 0 0 0 0 0 0 0 0 0 0 0 0 0 0 0 0 0 0 0 0 0 0 0 0 0 0 0 0 0 0 0 0 0 0 0 0 0 0 0 0 0 0 0 0 0 0 0 0 0 0 0 0 0 0 0 0 0 0 0 0 0 0 0 0 0 0 0 0 0 0 0 0 0 0 0 0 0 0 0 0 0 0 0 0 0 0 0 0 0 0 0 0 0 0 0 0 0 0 0 0 0 0 0 0 0 0 0 0 0 0 0 0 0 0 0 0 0 0 0 0 0 0 0 0 0 0 0 0 0 0 0 0 0 0 0 0 0 0 0 0 0 0 0 0 0 0 0 0 0 0 0 0 0 0 0 0 0 0 0 0 0 0 0 0 0 0 0 0 0 0 0 0 0 0 0 0 0 0 0 0 0 0 0 0 0 0 0 0 0 0 0 0 0 0 0 0 0 0 0 0 0 0 0 0 0 0 0 0 0 0 0 0 0 0 0 0 0 0 0 0 0 0 0 0 0 0 0 0 0 0 0 0 0 0 0 0 0 0 0 0 0 0 0 0 0 0 0 0 0 0 0 0 0 0 0 0 0 0 0 0 0 0 0 0 0 0 0 0 0 0 0 0 0 0 0 0 0 0 0 0 0 0 0 0 0 151 197 161 97 46 33 24 22 35 28 5 0 0 0 0 0 0 0 0 0 0 0 0 0 0 0 76 114 91 37 7 5 5 5 5 3 0 0 0 0 0 0 0 0 0 0 0 0 0 0 0 0 24 30 16 5 1 0 1 0 0 0 0 0 0 0 0 0 0 0 0 0 0 0 0 0 0 0 1 1 0 0 0 0 0 0 0 0 0 0 0 0 0 0 0 0 0 0 0 0 0 0 0 0 0 0 0 0 0 0 0 0 0 0 0 0 0 0 0 0 0 0 0 0 0 0 0 0 0 0 0 0 0 0 0 0 0 0 0 0 0 0 0 0 0 0 0 0 0 0 0 0 0 0 0 0 0 0 0 0 0 0 0 0 0 0 0 0 0 0 0 0 0 0 0 0 0 0 0 0 0 0 0 0 0 0 0 0 0 0 0 0 0 0 0 0 0 0 0 0 0 0 0 0 0 0 0 0 0 0 0 0 0 0 0 0 0 0 0 0 0 0 0 0 0 0 0 0 0 0 0 0 0 0 0 0 0 0 0 0 0 0 0 0 0 0 0 0 0 0 0 0 0 0 0 0 0 0 0 0 0 0 0 0 0 0 0 0 0 0 0 0 0 0 0 0 0 0 0 0 0 0 0 0 0 0 0 0 0 0 0 0 0 0 0 0 0 0 0 0 0 0 0 0 0 0 0 0 0 0 0 0 0 0 0 0 0 0 0 0 0 0 0 0 0 0 0 0 0 0 0 0 0 0 0 0 0 0 0 0 0 0 0 0 0 0 0 0 0 0 0 0 0 0 0 0 0 0 0 0 0 0 0 0 0 0 0 0 0 0 0 0 0 0 0 0 0 0 0 0 0 0 0 0 0 0 0 0 0 0 0 0 0 0 0 0 0 0 0 0 0 0 0 0 0 0 0 0 0 0 0 0 0 0 0 0 0 0 0 0 0 0 0 0 0 0 0 0 0 0 0 0 0 0 0 0 0 0 0 0 0 0 0 0 0 0 0 0 0 0 0 0 0 0 0 0 0 0 0 0 0 0 0 0 0 0 0 0 0 0 0 0 0 0 0 0 0 0 0 0 0 0 0 0 0 0 0 0 0 0 0 0 0 0 0 0 0 0 0 0 0 0 0 0 0 0 0 0 0 0 0 0 0 0 0 0 0 0 0 0 0 0 0 0 0 0 0 0 0 0 0 0 0 0 0 0 0 0 0 0 0 0 0 0 0 0 0 0 0 0 0 0 0 0 0 0 0 0 0 0 0 0 0 0 0 0 0 0 0 0 0 0 0 0 0 0 0 0 0 0 0 0 0 0 0 0 0 0 0 0 0 0 0 0 0 0 0 0 0 0 0 0 0 0 0 0 0 0 0 0 0 0 0 0 0 0 0 0 0 0 0 0 0 0 0 0 0 0 0 0 0 0 0 0 0 0 0 0 0 0 0 0 0 0 0 0 0 0 0 0 0 0 0 0 0 0 0 0 0 0 0 0 0 0 0 0 0 0 0 0 0 0 0 0 0 0 183 215 189 139 87 63 50 38 55 48 14 2 1 0 0 0 0 0 0 0 0 0 0 0 0 0 158 170 114 41 13 10 13 11 8 6 3 1 0 0 0 0 0 0 0 0 0 1 0 0 0 0 82 82 23 2 1 1 1 1 1 1 1 0 0 0 0 0 0 0 0 0 0 1 0 0 0 0 9 9 1 0 0 0 0 0 0 0 0 0 0 0 0 0 0 0 0 0 0 1 0 0 0 0 0 0 0 0 0 0 0 0 0 0 0 0 0 0 0 0 0 0 0 0 0 0 0 0 0 0 0 0 0 0 0 0 0 0 0 0 0 0 0 0 0 0 0 0 0 0 0 0 0 0 0 0 0 0 0 0 0 0 0 0 0 0 0 0 0 0 0 0 0 0 0 0 0 0 0 0 0 0 0 0 0 0 0 0 0 0 0 0 0 0 0 0 0 0 0 0 0 0 0 0 0 0 0 0 0 0 0 0 0 0 0 0 0 0 0 0 0 0 0 0 0 0 0 0 0 0 0 0 0 0 0 0 0 0 0 0 0 0 0 0 0 0 0 0 0 0 0 0 0 0 0 0 0 0 0 0 0 0 0 0 0 0 0 0 0 0 0 0 0 0 0 0 0 0 0 0 0 0 0 0 0 0 1 0 0 0 0 0 0 0 0 0 0 0 0 0 0 0 0 0 0 0 0 0 0 0 0 0 1 0 0 0 0 0 0 0 0 0 0 0 0 0 0 0 0 0 0 0 0 0 0 0 0 0 1 0 0 0 0 0 0 0 0 0 0 0 0 0 0 0 0 0 0 0 0 0 0 0 0 0 1 0 0 0 0 0 0 0 1 1 1 0 0 0 0 0 0 0 0 0 0 0 0 0 0 0 0 0 0 1 1 1 1 1 1 1 1 0 0 0 0 0 0 0 0 0 0 0 0 0 0 0 0 0 0 1 1 1 1 1 1 1 1 0 0 0 0 0 0 0 0 0 0 0 0 0 0 0 0 0 1 1 1 1 1 1 1 1 1 0 0 0 0 0 0 0 0 0 0 0 0 0 0 0 0 1 1 1 1 1 1 1 1 1 1 0 0 0 0 0 0 0 0 0 0 0 0 0 0 0 0 1 1 1 1 1 1 1 1 1 0 0 0 0 0 0 0 0 0 0 0 0 0 0 0 0 1 1 1 1 1 1 1 0 0 0 0 0 0 0 0 0 0 0 0 0 0 0 0 0 0 0 1 1 1 1 1 1 0 0 0 0 0 0 0 0 0 0 0 0 0 0 0 0 0 0 0 0 1 0 1 1 0 0 0 0 0 0 0 0 0 0 0 0 0 0 0 0 0 0 0 0 0 0 0 0 0 0 0 0 0 0 0 0 0 0 0 0 0 0 0 0 0 0 0 0 0 0 0 0 0 0 0 0 0 0 0 0 0 0 0 0 0 0 0 0 0 0 0 0 0 0 0 0 0 0 0 0 0 0 0 0 0 0 0 0 0 0 0 0 0 0 0 0 0 0 0 0 0 0 0 0 198 219 190 160 124 116 120 94 77 58 22 5 2 1 1 1 1 1 1 1 2 2 2 2 1 0 187 185 110 49 24 27 44 37 18 11 7 3 1 1 1 1 1 1 1 1 2 2 2 2 1 0 99 97 24 5 4 3 4 4 2 2 2 1 1 1 1 1 1 1 1 1 2 3 2 2 1 0 15 14 3 2 2 1 1 1 0 0 0 0 1 1 1 1 1 1 1 1 2 2 3 2 1 0 2 2 1 1 1 1 0 0 0 0 0 0 1 1 1 1 1 0 1 1 2 2 3 2 1 0 2 3 2 1 1 1 1 0 0 0 0 0 1 1 0 0 0 0 1 1 2 2 3 2 1 0 3 5 3 2 2 1 1 1 1 1 0 0 0 0 0 0 0 0 1 1 1 2 3 3 2 0 4 6 7 5 4 3 1 1 1 1 0 0 0 0 0 0 0 1 1 1 1 2 3 3 2 1 4 8 10 11 9 3 1 1 1 1 0 0 0 1 1 1 1 1 1 1 1 3 4 4 2 1 3 5 8 13 12 3 1 1 1 1 1 1 1 1 1 1 1 1 1 1 2 4 5 4 2 1 3 2 3 7 6 2 1 1 1 1 1 2 2 1 1 1 1 1 1 2 3 5 6 5 2 1 4 3 3 3 2 2 1 1 1 2 3 4 3 2 1 1 1 2 2 3 4 5 6 4 2 0 6 5 4 3 3 2 2 2 2 3 5 5 3 2 1 1 2 2 2 2 4 4 4 3 1 0 7 6 5 5 4 4 4 4 3 4 6 5 3 2 1 2 2 2 2 2 2 2 2 2 1 0 6 6 5 6 6 6 7 6 6 7 8 7 3 2 2 2 2 2 1 1 2 2 1 1 1 0 5 6 6 7 8 11 12 9 9 12 13 9 4 3 2 2 2 2 1 1 1 1 1 1 1 0 5 5 6 8 11 17 17 13 15 19 18 9 4 3 2 2 2 1 1 1 1 1 1 1 0 0 4 5 6 9 14 19 18 16 22 29 23 8 3 3 3 2 1 1 1 1 1 1 1 1 0 0 5 5 7 10 14 17 17 18 29 40 27 8 3 3 2 2 1 1 1 1 1 1 1 1 0 0 6 5 7 10 12 12 12 16 30 37 20 5 2 2 2 2 1 1 1 1 1 1 1 1 0 0 6 5 7 9 11 8 6 8 18 17 6 2 2 2 2 1 1 1 1 1 0 0 0 0 0 0 6 5 6 9 10 6 4 3 5 4 1 2 2 2 2 2 1 1 1 1 0 0 0 0 0 0 5 4 5 8 8 5 3 2 2 1 1 1 1 2 2 1 1 1 1 1 1 0 0 0 0 0 5 4 4 6 6 4 2 1 1 1 1 1 1 1 1 1 1 1 1 1 1 0 0 0 0 0 3 3 3 4 3 2 1 1 0 0 0 0 0 0 0 1 0 0 0 0 0 0 0 0 0 0 1 1 1 1 1 1 0 0 0 0 0 0 0 0 0 0 0 0 0 0 0 0 0 0 0 0 192 210 161 140 134 150 164 145 111 76 48 25 10 6 7 8 9 9 7 5 5 6 8 10 11 8 167 161 83 60 48 48 60 58 44 35 32 22 11 7 8 9 10 9 6 5 5 7 8 9 10 11 77 77 37 39 37 20 13 15 17 19 16 12 8 8 10 11 11 9 5 4 5 7 8 9 10 10 30 35 29 31 30 15 8 7 7 6 5 5 7 9 12 13 11 7 4 4 5 7 9 9 10 7 18 22 20 21 20 10 7 6 5 4 4 6 9 12 14 12 9 5 3 3 5 8 10 10 10 5 20 20 17 16 14 8 7 6 7 8 8 10 12 13 11 9 5 4 3 4 6 8 11 12 11 5 35 39 29 22 18 14 10 9 13 17 15 13 12 10 7 5 4 4 4 5 6 9 12 14 14 10 50 71 67 48 38 33 19 14 20 22 16 11 8 6 5 5 5 5 5 5 7 10 14 18 18 16 50 88 94 80 69 49 24 15 19 17 10 6 6 6 7 7 6 6 6 6 8 12 18 22 22 20 34 66 79 87 80 42 19 12 12 10 6 6 8 11 11 10 8 7 7 8 10 17 23 26 26 23 20 29 38 58 56 23 13 11 9 7 9 13 18 18 16 12 9 8 9 11 14 21 27 29 28 24 24 17 16 23 22 12 12 12 11 11 18 25 27 21 15 11 10 11 13 15 19 25 29 30 26 22 38 31 23 18 14 13 16 17 15 18 29 34 29 20 14 14 14 15 18 21 25 27 28 27 21 16 48 46 37 28 22 20 24 25 20 24 37 40 30 22 20 20 20 20 22 24 26 24 22 20 16 12 46 48 43 35 32 34 37 35 27 32 48 48 34 27 26 25 25 24 24 25 23 19 16 15 12 10 36 39 39 40 44 52 54 49 41 48 63 56 36 28 26 24 25 25 25 23 19 14 12 12 10 9 28 30 35 46 58 72 72 64 62 69 76 58 34 25 23 21 22 23 22 19 14 11 10 10 9 7 26 27 35 54 71 83 84 79 83 92 86 58 31 23 21 19 19 18 16 13 10 9 9 10 8 6 29 30 38 58 71 78 85 88 101 113 96 56 27 22 21 18 16 14 11 8 7 7 8 8 6 5 35 36 40 54 60 57 67 82 106 114 83 40 20 20 20 18 14 10 8 6 6 6 7 7 6 3 38 41 44 53 52 37 34 51 77 76 41 18 15 17 17 16 12 8 6 6 6 6 6 6 5 3 30 33 41 52 49 29 17 19 30 27 12 9 11 13 14 12 10 7 6 6 6 6 6 5 4 3 25 24 32 45 42 25 14 10 9 9 8 8 10 11 12 11 9 7 6 6 6 6 5 5 3 2 28 26 34 44 39 21 11 8 7 8 8 8 9 11 12 12 9 6 6 7 6 6 5 4 3 2 25 28 38 45 38 18 7 6 6 7 8 8 9 11 11 10 7 5 5 5 5 5 4 4 3 2 15 25 36 43 35 15 3 2 4 6 7 8 9 10 9 6 4 3 4 3 3 3 2 3 2 1 176 195 141 127 137 158 171 176 163 120 81 55 37 31 31 31 30 27 21 17 18 24 30 35 36 25 147 138 97 106 101 85 91 103 95 75 68 59 45 37 35 34 32 27 20 16 18 23 29 34 35 27 104 103 92 110 110 75 72 81 71 59 55 54 47 42 41 41 36 27 19 16 18 24 29 33 34 20 96 106 92 104 109 75 63 66 56 49 45 45 45 46 49 47 38 24 16 15 19 26 31 35 34 18 82 91 80 89 91 64 51 52 53 49 41 42 49 53 53 48 35 22 16 16 21 29 35 39 37 16 75 76 70 74 66 51 47 53 62 55 45 52 58 56 51 43 31 21 18 19 24 32 38 44 43 20 96 95 89 78 68 60 54 64 74 66 62 66 61 51 45 37 29 24 22 23 27 35 42 50 51 39 132 143 142 118 106 99 78 74 76 75 76 69 55 45 42 37 33 30 27 26 30 38 48 57 61 60 150 173 174 155 145 131 100 76 73 79 73 56 46 46 47 45 41 35 31 30 34 44 56 68 72 70 137 166 168 164 158 134 100 70 73 75 57 44 45 52 56 53 45 38 34 35 41 54 65 76 79 75 96 121 126 142 142 108 82 67 70 65 50 48 56 63 62 53 44 39 39 43 50 62 71 79 79 72 68 69 69 91 93 68 62 64 66 64 60 61 68 68 62 52 46 47 49 54 60 69 74 79 74 63 84 68 57 57 55 49 53 63 72 74 72 71 72 68 61 56 55 58 61 66 71 75 74 73 64 51 115 103 85 66 57 57 62 74 82 79 77 76 76 75 70 67 67 68 70 75 76 74 69 64 54 42 130 126 110 85 69 73 79 86 84 78 84 85 83 84 79 75 74 75 76 79 76 70 61 53 44 35 123 124 116 100 87 90 93 93 86 87 99 99 92 86 79 75 76 77 78 79 74 65 54 45 39 33 104 106 107 110 109 112 107 103 99 105 114 110 94 79 73 72 73 75 76 74 66 56 47 41 36 26 88 91 101 120 129 131 124 117 119 126 128 117 92 73 70 69 69 71 69 64 54 44 40 39 36 26 88 91 103 126 135 137 136 133 139 145 139 116 83 70 69 67 65 63 58 49 41 35 36 38 37 34 98 104 107 119 124 121 128 137 148 152 134 96 65 63 67 66 62 55 45 35 32 33 35 38 37 33 106 116 116 116 110 93 93 109 125 122 92 59 50 56 61 62 56 44 36 31 31 33 35 36 34 29 101 111 119 121 108 79 63 65 70 62 43 36 42 52 59 58 48 35 31 31 32 34 35 36 32 26 86 91 110 121 106 77 56 40 33 33 32 35 41 50 57 53 42 32 31 34 35 35 34 33 29 23 84 86 108 121 106 75 49 34 34 37 38 41 46 51 55 52 42 33 33 37 38 37 35 31 25 19 85 88 107 120 107 70 40 32 33 34 34 39 44 48 47 43 35 28 27 32 35 33 32 27 20 12 60 82 102 117 105 63 31 26 22 16 17 28 31 25 22 23 19 17 17 22 23 21 20 16 13 2 169 193 175 163 160 171 183 198 193 161 128 116 116 114 105 93 88 84 69 52 48 54 60 71 79 62 174 167 165 171 163 153 161 165 146 122 114 118 124 126 115 97 87 81 68 54 51 56 63 73 79 74 174 169 169 180 178 159 161 160 135 118 119 128 135 131 115 97 87 80 67 57 57 63 68 76 78 67 179 179 172 182 189 172 164 160 139 130 132 136 135 123 105 94 88 79 68 62 64 69 74 79 79 66 174 176 168 180 189 179 169 162 154 147 138 130 119 104 95 94 89 81 72 67 69 75 79 83 82 68 163 164 160 171 176 175 172 169 169 153 127 111 100 91 91 94 92 85 79 73 73 78 83 87 87 73 164 161 162 163 163 169 173 176 173 146 115 103 95 88 89 94 96 93 86 79 77 81 86 93 95 88 180 181 181 172 169 178 179 177 164 135 114 106 94 87 90 98 104 102 94 83 79 84 90 99 104 104 194 200 198 186 182 187 182 164 144 128 116 104 94 93 99 110 115 111 100 87 83 88 96 106 112 112 196 206 202 192 188 185 170 143 131 128 117 107 104 107 115 123 123 115 103 91 87 94 102 112 118 117 181 193 191 189 186 172 153 133 131 131 127 124 123 125 128 128 122 113 104 95 93 100 106 113 117 115 161 167 164 169 169 155 145 136 135 140 143 142 138 135 130 123 115 107 102 98 99 104 108 112 114 109 152 147 140 146 153 147 143 142 147 154 153 148 142 134 123 111 103 99 98 100 103 106 108 112 110 102 160 154 142 142 150 150 146 147 158 160 152 144 137 126 112 101 96 96 98 102 105 107 109 112 107 97 171 170 160 151 146 150 149 149 158 156 146 134 125 116 105 98 98 99 101 105 106 109 111 111 101 89 173 175 171 160 144 145 147 147 153 152 140 124 116 110 103 99 99 101 103 106 109 113 113 106 93 82 168 170 170 164 150 144 143 144 148 148 136 122 114 106 101 99 100 102 105 109 111 114 110 99 85 70 160 161 164 166 159 150 144 143 143 141 135 127 116 105 102 103 105 109 110 112 111 108 101 91 80 68 153 154 160 165 162 158 153 147 144 141 139 131 116 108 109 111 112 114 111 108 103 96 89 82 77 74 146 153 157 160 158 156 156 152 149 147 143 131 117 115 119 122 120 115 103 93 88 81 77 75 76 74 146 157 161 157 152 144 143 145 144 141 132 121 116 120 124 126 120 106 90 78 74 71 71 73 73 70 144 157 164 162 152 136 130 130 127 122 114 110 113 121 126 126 114 94 77 69 69 70 72 73 72 68 136 147 162 166 154 137 123 114 110 109 108 110 113 120 125 121 104 82 71 70 71 72 72 72 69 64 135 140 158 167 156 138 119 106 107 109 110 113 116 119 121 115 97 76 70 73 77 78 77 75 68 61 137 139 154 164 156 134 111 102 104 106 106 109 111 112 110 103 87 71 66 70 76 79 78 74 65 54 109 135 149 161 154 127 103 97 95 92 91 97 99 92 88 84 71 60 57 63 68 71 70 65 57 33 113 138 133 122 116 119 128 142 138 117 97 93 98 98 88 77 73 71 58 41 36 37 40 48 57 48 133 129 133 132 124 119 126 124 104 89 85 91 102 107 97 79 69 67 56 43 39 40 44 51 58 60 140 134 136 141 138 128 129 122 99 89 91 101 112 111 94 74 68 65 56 47 45 46 50 55 59 58 145 141 139 147 154 144 137 130 110 104 108 114 113 99 78 67 67 66 58 52 51 52 55 58 59 58 143 142 138 149 161 158 150 141 130 123 118 108 92 73 62 65 69 68 62 56 55 56 58 59 60 59 135 134 132 144 154 158 156 150 145 129 104 81 64 55 58 68 73 73 67 61 58 58 59 61 62 61 128 127 126 134 137 149 155 153 146 117 80 60 54 54 59 71 78 78 73 65 59 59 60 63 65 65 129 130 130 127 128 144 154 150 135 98 67 59 57 56 61 75 84 85 78 67 60 60 61 65 69 70 136 141 137 129 129 141 146 133 110 83 69 66 63 62 68 83 93 91 82 69 61 61 63 67 72 74 143 149 144 133 130 132 126 107 90 82 82 80 77 76 83 95 99 95 83 70 62 62 65 69 75 77 145 150 145 137 131 124 112 97 89 93 101 101 97 95 97 101 100 93 82 69 63 64 66 70 75 78 137 141 136 133 131 124 116 104 99 107 118 119 111 104 100 96 90 81 73 66 63 65 67 70 75 77 121 123 118 123 131 128 121 114 113 121 127 124 113 101 90 80 70 64 61 61 62 64 68 73 76 76 111 113 108 117 129 129 122 116 122 128 127 119 105 88 72 61 56 54 55 58 61 65 71 78 78 75 112 116 114 117 122 124 120 114 123 127 119 104 85 69 58 54 53 54 55 57 61 68 77 83 77 70 117 122 121 119 112 114 116 112 121 123 106 82 65 58 55 54 54 54 55 58 64 75 82 82 72 62 122 125 125 120 107 103 106 109 115 113 92 69 59 57 56 55 56 57 58 63 71 82 83 77 64 55 122 123 123 118 106 99 100 102 102 94 79 67 62 61 60 61 63 66 68 73 79 83 78 68 57 51 114 114 116 113 105 100 100 96 90 82 76 72 70 69 70 72 75 78 77 78 79 75 67 58 52 50 100 105 110 109 105 102 101 95 89 84 83 84 83 83 85 87 86 83 76 71 68 60 53 50 50 50 92 102 109 108 105 101 100 97 93 91 90 91 91 92 94 95 89 80 67 57 54 49 47 48 49 49 90 102 110 109 105 99 98 98 97 95 93 92 92 94 96 95 87 72 57 48 47 46 47 48 49 48 90 100 110 112 107 99 94 93 93 92 91 91 91 93 95 92 80 61 50 46 47 48 48 49 49 48 92 98 108 113 109 101 92 88 88 90 90 91 91 92 92 86 72 54 47 48 50 52 53 53 50 47 93 97 106 112 109 99 89 84 86 87 87 87 87 87 85 78 65 51 47 48 52 56 56 55 50 45 74 95 104 110 107 95 84 81 83 84 84 83 83 81 78 72 59 48 46 47 51 56 56 54 48 32 0 0 0 0 0 0 0 0 0 0 0 0 0 0 0 0 0 0 0 0 0 0 0 0 0 0 0 0 0 0 0 0 0 0 0 0 0 0 0 0 0 0 0 0 0 0 0 0 0 0 0 0 0 0 0 0 0 0 0 0 0 0 0 0 0 0 0 0 0 0 0 0 0 0 0 0 0 0 0 0 0 0 0 0 0 0 0 0 0 0 0 0 0 0 0 0 0 0 0 0 0 0 0 0 0 0 0 0 0 0 0 0 0 0 0 0 0 0 0 0 0 0 0 0 0 0 0 0 0 0 0 0 0 0 0 0 0 0 0 0 0 0 0 0 0 0 0 0 0 0 0 0 0 0 0 0 0 0 0 0 0 0 0 0 0 0 0 0 0 0 0 0 0 0 0 0 0 0 0 0 0 0 0 0 0 0 0 0 0 0 0 0 0 0 0 0 0 0 0 0 0 0 0 0 0 0 0 0 0 0 0 0 0 0 0 0 0 0 0 0 0 0 0 0 0 0 0 0 0 0 0 0 0 0 0 0 0 0 0 0 0 0 0 0 0 0 0 0 0 0 0 0 0 0 0 0 0 0 0 0 0 0 0 0 0 0 0 0 0 0 0 0 0 0 0 0 0 0 0 0 0 0 0 0 0 0 0 0 0 0 0 0 0 0 0 0 0 0 0 0 0 0 0 0 0 0 0 0 0 0 0 0 0 0 0 0 0 0 0 0 0 0 0 0 0 0 0 0 0 0 0 0 0 0 0 0 0 0 0 0 0 0 0 0 0 0 0 0 0 0 0 0 0 0 0 0 0 0 0 0 0 0 0 0 0 0 0 0 0 0 0 0 0 0 0 0 0 0 0 0 0 0 0 0 0 0 0 0 0 0 0 0 0 0 0 0 0 0 0 0 0 0 0 0 0 0 0 0 0 0 0 0 0 0 0 0 0 0 0 0 0 0 0 0 0 0 0 0 0 0 0 0 0 0 0 0 0 0 0 0 0 0 0 0 0 0 0 0 0 0 0 0 0 0 0 0 0 0 0 0 0 0 0 0 0 0 0 0 0 0 0 0 0 0 0 0 0 0 0 0 0 0 0 0 0 0 0 0 0 0 0 0 0 0 0 0 0 0 0 0 0 0 0 0 0 0 0 0 0 0 0 0 0 0 0 0 0 0 0 0 0 0 0 0 0 0 0 0 0 0 0 0 0 0 0 0 0 0 0 0 0 0 0 0 0 0 0 0 0 0 0 0 0 0 0 0 0 0 0 0 0 0 0 0 0 0 0 0 0 0 0 0 0 0 0 0 0 0 0 0 0 0 0 0 0 0 0 0 0 0 0 0 0 0 0 0 0 0 0 0 0 0 0 0 0 0 0 0 0 0 0 0 0 0 0 0 0 0 0 0 0 0 0 0 0 0 0 0 0 0 0 0 0 0 0 0 0 0 0 0 0 0 0 0 0 0 0 0 0 0 0 0 0 0 0 0 0 0 0 0 0 0 0 0 0 0 0 0 0 0 0 0 0 0 0 0 
</DataArray>
<DataArray Name="HRRPUV" NumberOfComponents="1" type="UInt8" format="ascii">