<?xml version="1.0"?>
<VTKFile type="RectilinearGrid" version="1.0" byte_order="LittleEndian" header_type="UInt64">
<RectilinearGrid WholeExtent="25 50 0 25 0 15">
<Piece Extent="25 50 0 25 0 15">
<Coordinates>
<DataArray type="Float64" Name="Array X-Axis" format="ascii" RangeMin="15.0" RangeMax="30.0">
15.0 15.6 16.2 16.8 17.4 18.0 18.6 19.2 19.8 20.4 21.0 21.6 22.2 22.8 23.4 24.0 24.6 25.2 25.8 26.4 27.0 27.6 28.2 28.8 29.4 30.0 
</DataArray>
<DataArray type="Float64" Name="Array Y-Axis" format="ascii" RangeMin="0.0" RangeMax="15.0">
0.0 0.6 1.2 1.8 2.4 3.0 3.6 4.2 4.8 5.4 6.0 6.6 7.2 7.8 8.4 9.0 9.6 10.2 10.8 11.4 12.0 12.6 13.2 13.8 14.4 15.0 
</DataArray>
<DataArray type="Float64" Name="Array Z-Axis" format="ascii" RangeMin="0.0" RangeMax="9.0">
0.0 0.6 1.2 1.8 2.4 3.0 3.6 4.2 4.8 5.4 6.0 6.6 7.2 7.8 8.4 9.0 
</DataArray>
</Coordinates>
<PointData>
<DataArray Name="SOOT DENSITY" NumberOfComponents="1" type="UInt8" format="ascii">
0 0 0 0 0 0 0 0 0 0 0 0 0 0 0 0 0 0 0 0 0 0 0 0 0 0 0 0 0 0 0 0 0 0 0 0 0 0 0 0 0 0 0 0 0 0 0 0 0 0 0 0 0 0 0 0 0 0 0 0 0 0 0 0 0 0 0 0 0 0 0 0 0 0 0 0 0 0 0 0 0 0 0 0 0 0 0 0 0 0 0 0 0 0 0 0 0 0 0 0 0 0 0 0 0 0 0 0 0 0 0 0 0 0 0 0 0 0 0 0 0 0 0 0 0 0 0 0 0 0 0 0 0 0 0 0 0 0 0 0 0 0 0 0 0 0 0 0 0 0 0 0 0 0 0 0 0 0 0 0 0 0 0 0 0 0 0 0 0 0 0 0 0 0 0 0 0 0 0 0 0 0 0 0 0 0 0 0 0 0 0 0 0 0 0 0 0 0 0 0 0 0 0 0 0 0 0 0 0 0 0 0 0 0 0 0 0 0 0 0 0 0 0 0 0 0 0 0 0 0 0 0 0 0 0 0 0 0 0 0 0 0 0 0 0 0 0 0 0 0 0 0 0 0 0 0 0 0 0 0 0 0 0 0 0 0 0 0 0 0 0 0 0 0 0 0 0 0 0 0 0 0 0 0 0 0 0 0 0 0 0 0 0 0 0 0 0 0 0 0 0 0 0 0 0 0 0 0 0 0 0 0 0 0 0 0 0 0 0 0 0 0 0 0 0 0 0 0 0 0 0 0 0 0 0 0 0 0 0 0 0 0 0 0 0 0 0 0 0 0 0 0 0 0 0 0 0 0 0 0 0 0 0 0 0 0 0 0 0 0 0 0 0 0 0 0 0 0 0 0 0 0 0 0 0 0 0 0 0 0 0 0 0 0 0 0 0 0 0 0 0 0 0 0 0 0 0 0 0 0 0 0 0 0 0 0 0 0 0 0 0 0 0 0 0 0 0 0 0 0 0 0 0 0 0 0 0 0 0 0 0 0 0 0 0 0 0 0 0 0 0 0 0 0 0 0 0 0 0 0 0 0 0 0 0 0 0 0 0 0 0 0 0 0 0 0 0 0 0 0 0 0 0 0 0 0 0 0 0 0 0 0 0 0 0 0 0 2 4 5 5 5 3 0 0 0 0 0 0 0 0 0 0 0 0 0 0 0 0 0 0 0 2 11 12 5 5 18 23 8 0 0 0 0 0 0 0 0 0 0 0 0 0 0 0 0 0 1 3 16 14 0 0 19 28 10 0 0 0 0 0 0 0 0 0 0 0 0 0 0 0 0 0 1 2 10 8 0 0 9 12 3 0 0 0 0 0 0 0 0 0 0 0 0 0 0 0 0 0 0 1 4 6 5 5 8 5 0 0 0 0 0 0 0 0 0 0 0 0 0 0 0 0 0 0 0 0 1 4 5 6 5 2 0 0 0 0 0 0 0 0 0 0 0 0 0 0 0 0 0 0 0 0 0 0 1 1 0 0 0 0 0 0 0 0 0 0 0 0 0 0 0 0 0 0 0 0 0 0 0 0 0 0 0 0 0 0 0 0 0 0 0 0 0 0 0 0 0 0 0 0 0 0 0 0 0 0 0 0 0 0 0 0 0 0 0 0 0 0 0 0 0 0 0 0 0 0 0 0 0 0 0 0 0 0 0 0 0 0 0 0 0 0 0 0 0 0 0 0 0 0 0 0 0 0 0 0 0 0 0 0 0 0 0 0 0 0 0 0 0 0 0 0 0 0 0 0 0 0 0 0 0 0 0 0 0 0 0 0 0 0 0 0 0 0 0 0 0 0 0 0 0 0 0 0 0 0 0 0 0 0 0 0 0 0 0 0 0 0 0 0 0 0 0 0 0 0 0 0 0 0 0 0 0 0 0 0 0 0 0 0 0 0 0 0 0 0 0 0 0 0 0 0 0 0 0 0 0 0 0 0 0 0 0 0 0 0 0 0 0 0 0 0 0 0 0 0 0 0 0 0 0 0 0 0 0 0 0 0 0 0 0 0 0 0 0 0 0 0 0 0 0 0 0 0 0 0 0 0 0 0 0 0 0 0 0 0 0 0 0 0 0 0 0 0 0 0 0 0 0 0 0 0 0 0 0 0 0 0 0 0 0 0 0 0 0 0 0 0 0 0 0 0 0 0 0 0 0 0 0 0 0 0 0 0 0 0 0 0 0 0 0 0 0 0 0 0 0 0 0 0 0 0 0 0 0 0 0 0 0 0 0 0 0 0 0 0 0 0 0 0 0 0 0 0 0 0 0 0 0 0 0 0 0 0 0 0 0 0 0 0 0 0 0 0 0 0 0 0 0 0 0 0 0 0 0 0 0 0 0 0 0 0 0 0 0 0 0 0 0 0 0 0 0 0 0 0 0 0 0 0 0 0 0 0 0 0 0 0 0 0 0 0 0 0 0 0 0 0 0 0 0 0 0 0 0 0 0 0 0 0 0 0 0 0 0 0 0 0 0 0 0 0 0 0 0 0 0 0 0 0 0 0 0 0 0 0 0 0 0 0 0 0 1 2 2 0 0 0 0 0 0 0 0 0 0 0 0 0 0 0 0 0 0 0 0 0 3 4 5 7 6 2 0 0 0 0 0 0 0 0 0 0 0 0 0 0 0 0 0 0 0 1 22 39 38 40 52 39 7 0 0 0 0 0 0 0 0 0 0 0 0 0 0 0 0 0 1 10 61 131 168 181 184 153 63 2 0 0 0 0 0 0 0 0 0 0 0 0 0 0 0 1 3 14 68 165 218 241 233 164 71 2 0 0 0 0 0 0 0 0 0 0 0 0 0 0 0 1 3 13 43 128 204 241 228 91 20 1 0 0 0 0 0 0 0 0 0 0 0 0 0 0 0 0 2 10 28 68 132 186 165 58 4 0 0 0 0 0 0 0 0 0 0 0 0 0 0 0 0 0 0 3 14 24 30 40 46 25 1 0 0 0 0 0 0 0 0 0 0 0 0 0 0 0 0 0 0 0 1 3 3 3 4 3 0 0 0 0 0 0 0 0 0 0 0 0 0 0 0 0 0 0 0 0 0 0 0 0 0 0 0 0 0 0 0 0 0 0 0 0 0 0 0 0 0 0 0 0 0 0 0 0 0 0 0 0 0 0 0 0 0 0 0 0 0 0 0 0 0 0 0 0 0 0 0 0 0 0 0 0 0 0 0 0 0 0 0 0 0 0 0 0 0 0 0 0 0 0 0 0 0 0 0 0 0 0 0 0 0 0 0 0 0 0 0 0 0 0 0 0 0 0 0 0 0 0 0 0 0 0 0 0 0 0 0 0 0 0 0 0 0 0 0 0 0 0 0 0 0 0 0 0 0 0 0 0 0 0 0 0 0 0 0 0 0 0 0 0 0 0 0 0 0 0 0 0 0 0 0 0 0 0 0 0 0 0 0 0 0 0 0 0 0 0 0 0 0 0 0 0 0 0 0 0 0 0 0 0 0 0 0 0 0 0 0 0 0 0 0 0 0 0 0 0 0 0 0 0 0 0 0 0 0 0 0 0 0 0 0 0 0 0 0 0 0 0 0 0 0 0 0 0 0 0 0 0 0 0 0 0 0 0 0 0 0 0 0 0 0 0 0 0 0 0 0 0 0 0 0 0 0 0 0 0 0 0 0 0 0 0 0 0 0 0 0 0 0 0 0 0 0 0 0 0 0 0 0 0 0 0 0 0 0 0 0 0 0 0 0 0 0 0 0 0 0 0 0 0 0 0 0 0 0 0 0 0 0 0 0 0 0 0 0 0 0 0 0 0 0 0 0 0 0 0 0 0 0 0 0 0 0 0 0 0 0 0 0 0 0 0 0 0 0 0 0 0 0 0 0 0 0 0 0 0 0 0 0 0 0 0 0 0 0 0 0 0 0 0 0 0 0 0 0 0 0 0 0 0 0 0 0 0 0 0 0 0 0 0 0 0 0 0 0 0 0 0 0 0 0 0 0 0 0 0 0 0 0 0 0 0 0 0 0 1 1 0 0 0 0 0 0 0 0 0 0 0 0 0 0 0 0 0 0 0 0 0 4 5 5 19 19 3 0 0 0 0 0 0 0 0 0 0 0 0 0 0 0 0 0 0 0 3 31 32 15 36 37 13 1 0 0 0 0 0 0 0 0 0 0 0 0 0 0 0 0 0 2 18 92 106 72 90 103 64 9 0 0 0 0 0 0 0 0 0 0 0 0 0 0 0 0 1 6 40 150 210 224 236 241 213 90 2 0 0 0 0 0 0 0 0 0 0 0 0 0 0 0 2 11 48 160 237 250 253 253 232 103 3 0 0 0 0 0 0 0 0 0 0 0 0 0 0 0 2 10 43 139 227 247 253 252 186 38 2 0 0 0 0 0 0 0 0 0 0 0 0 0 0 0 1 7 50 126 180 205 239 232 112 13 1 0 0 0 0 0 0 0 0 0 0 0 0 0 0 0 0 3 35 85 88 66 105 107 40 3 0 0 0 0 0 0 0 0 0 0 0 0 0 0 0 0 0 0 3 17 19 8 7 8 3 0 0 0 0 0 0 0 0 0 0 0 0 0 0 0 0 0 0 0 0 0 0 0 0 0 0 0 0 0 0 0 0 0 0 0 0 0 0 0 0 0 0 0 0 0 0 0 0 0 0 0 0 0 0 0 0 0 0 0 0 0 0 0 0 0 0 0 0 0 0 0 0 0 0 0 0 0 0 0 0 0 0 0 0 0 0 0 0 0 0 0 0 0 0 0 0 0 0 0 0 0 0 0 0 0 0 0 0 0 0 0 0 0 0 0 0 0 0 0 0 0 0 0 0 0 0 0 0 0 0 0 0 0 0 0 0 0 0 0 0 0 0 0 0 0 0 0 0 0 0 0 0 0 0 0 0 0 0 0 0 0 0 0 0 0 0 0 0 0 0 0 0 0 0 0 0 0 0 0 0 0 0 0 0 0 0 0 0 0 0 0 0 0 0 0 0 0 0 0 0 0 0 0 0 0 0 0 0 0 0 0 0 0 0 0 0 0 0 0 0 0 0 0 0 0 0 0 0 0 0 0 0 0 0 0 0 0 0 0 0 0 0 0 0 0 0 0 0 0 0 0 0 0 0 0 0 0 0 0 0 0 0 0 0 0 0 0 0 0 0 0 0 0 0 0 0 0 0 0 0 0 0 0 0 0 0 0 0 0 0 0 0 0 0 0 0 0 0 0 0 0 0 0 0 0 0 0 0 0 0 0 0 0 0 0 0 0 0 0 0 0 0 0 0 0 0 0 0 0 0 0 0 0 0 0 0 0 0 0 0 0 0 0 0 0 0 0 0 0 0 0 0 0 0 0 0 0 0 0 0 0 0 0 0 0 0 0 0 0 0 0 0 0 0 0 0 0 0 0 0 0 0 0 0 0 0 0 0 0 0 0 0 0 0 0 0 0 0 0 0 0 0 0 0 0 0 0 0 0 0 0 0 0 0 0 0 0 0 0 0 0 0 0 0 0 0 0 0 0 0 0 0 0 0 0 1 2 1 1 2 2 0 0 0 0 0 0 0 0 0 0 0 0 0 0 0 0 0 0 0 1 4 10 7 0 26 23 5 0 0 0 0 0 0 0 0 0 0 0 0 0 0 0 0 0 1 6 28 57 41 0 56 55 24 3 0 0 0 0 0 0 0 0 0 0 0 0 0 0 0 0 12 28 100 159 134 0 126 121 65 8 0 0 0 0 0 0 0 0 0 0 0 0 0 0 0 0 25 62 158 221 229 0 242 243 212 70 3 0 0 0 0 0 0 0 0 0 0 0 0 0 0 0 24 66 165 233 248 0 254 254 245 127 13 0 0 0 0 0 0 0 0 0 0 0 0 0 0 0 14 40 151 229 247 0 254 253 241 144 34 1 0 0 0 0 0 0 0 0 0 0 0 0 0 0 7 23 131 207 227 0 246 244 201 114 28 0 0 0 0 0 0 0 0 0 0 0 0 0 0 0 2 12 67 124 142 128 146 138 77 39 4 0 0 0 0 0 0 0 0 0 0 0 0 0 0 0 0 0 4 22 39 27 12 8 4 2 0 0 0 0 0 0 0 0 0 0 0 0 0 0 0 0 0 0 0 0 0 0 0 0 0 0 0 0 0 0 0 0 0 0 0 0 0 0 0 0 0 0 0 0 0 0 0 0 0 0 0 0 0 0 0 0 0 0 0 0 0 0 0 0 0 0 0 0 0 0 0 0 0 0 0 0 0 0 0 0 0 0 0 0 0 0 0 0 0 0 0 0 0 0 0 0 0 0 0 0 0 0 0 0 0 0 0 0 0 0 0 0 0 0 0 0 0 0 0 0 0 0 0 0 0 0 0 0 0 0 0 0 0 0 0 0 0 0 0 0 0 0 0 0 0 0 0 0 0 0 0 0 0 0 0 0 0 0 0 0 0 0 0 0 0 0 0 0 0 0 0 0 0 0 0 0 0 0 0 0 0 0 0 0 0 0 0 0 0 0 0 0 0 0 0 0 0 0 0 0 0 0 0 0 0 0 0 0 0 0 0 0 0 0 0 0 0 0 0 0 0 0 0 0 0 0 0 0 0 0 0 0 0 0 0 0 0 0 0 0 0 0 0 0 0 0 0 0 0 0 0 0 0 0 0 0 0 0 0 0 0 0 0 0 0 0 0 0 0 0 0 0 0 0 0 0 0 0 0 0 0 0 0 0 0 0 0 0 0 0 0 0 0 0 0 0 0 0 0 0 0 0 0 0 0 0 0 0 0 0 0 0 0 0 0 0 0 0 0 0 0 0 0 0 0 0 0 0 0 0 0 0 0 0 0 0 0 0 0 0 0 0 0 0 0 0 0 0 0 0 0 0 0 0 0 0 0 0 0 0 0 0 0 0 0 0 0 0 0 0 0 0 0 0 0 0 0 0 0 0 0 0 0 0 0 0 0 0 0 0 0 0 0 0 0 0 0 0 0 0 0 0 0 0 0 0 0 1 1 0 0 0 0 0 0 0 0 0 0 0 0 0 0 0 0 0 0 0 0 0 0 0 0 2 4 3 1 1 1 1 0 0 0 0 0 0 0 0 0 0 0 0 0 0 0 0 0 0 2 5 11 10 0 0 0 8 3 0 0 0 0 0 0 0 0 0 0 0 0 0 0 0 0 0 5 16 44 51 0 0 0 46 30 7 0 0 0 0 0 0 0 0 0 0 0 0 0 0 0 0 30 76 151 176 0 0 0 117 76 20 1 0 0 0 0 0 0 0 0 0 0 0 0 0 0 0 75 166 228 241 0 0 0 228 186 63 6 0 0 0 0 0 0 0 0 0 0 0 0 0 0 0 86 192 240 249 0 0 0 253 246 158 25 1 0 0 0 0 0 0 0 0 0 0 0 0 0 0 53 153 229 247 0 0 0 254 251 213 69 1 0 0 0 0 0 0 0 0 0 0 0 0 0 0 27 74 177 222 0 0 0 244 234 186 58 1 0 0 0 0 0 0 0 0 0 0 0 0 0 0 15 20 55 93 148 160 139 123 95 55 7 0 0 0 0 0 0 0 0 0 0 0 0 0 0 0 3 2 4 15 48 45 14 10 5 2 0 0 0 0 0 0 0 0 0 0 0 0 0 0 0 0 0 0 0 0 0 0 0 0 0 0 0 0 0 0 0 0 0 0 0 0 0 0 0 0 0 0 0 0 0 0 0 0 0 0 0 0 0 0 0 0 0 0 0 0 0 0 0 0 0 0 0 0 0 0 0 0 0 0 0 0 0 0 0 0 0 0 0 0 0 0 0 0 0 0 0 0 0 0 0 0 0 0 0 0 0 0 0 0 0 0 0 0 0 0 0 0 0 0 0 0 0 0 0 0 0 0 0 0 0 0 0 0 0 0 0 0 0 0 0 0 0 0 0 0 0 0 0 0 0 0 0 0 0 0 0 0 0 0 0 0 0 0 0 0 0 0 0 0 0 0 0 0 0 0 0 0 0 0 0 0 0 0 0 0 0 0 0 0 0 0 0 0 0 0 0 0 0 0 0 0 0 0 0 0 0 0 0 0 0 0 0 0 0 0 0 0 0 0 0 0 0 0 0 0 0 0 0 0 0 0 0 0 0 0 0 0 0 0 0 0 0 0 0 0 0 0 0 0 0 0 0 0 0 0 0 0 0 0 0 0 0 0 0 0 0 0 0 0 0 0 0 0 0 0 0 0 0 0 0 0 0 0 0 0 0 0 0 0 0 0 0 0 0 0 0 0 0 0 0 0 0 0 0 0 0 0 0 0 0 0 0 0 0 0 0 0 0 0 0 0 0 0 0 0 0 0 0 0 0 0 0 0 0 0 0 0 0 0 0 0 0 0 0 0 0 0 0 0 0 0 0 0 0 0 0 0 0 0 0 0 0 0 0 0 0 0 0 0 0 0 0 0 0 0 0 0 0 0 0 0 0 0 0 0 0 0 0 0 0 0 0 0 0 0 0 0 0 0 0 0 0 0 0 0 0 0 0 0 0 0 0 1 1 0 0 0 0 0 0 0 0 0 0 0 0 0 0 0 0 0 0 0 0 0 0 0 6 6 6 3 1 0 0 0 0 0 0 0 0 0 0 0 0 0 0 0 0 0 0 0 0 0 15 15 14 0 0 0 3 4 2 0 0 0 0 0 0 0 0 0 0 0 0 0 0 0 0 0 25 37 41 0 0 0 36 49 39 11 0 0 0 0 0 0 0 0 0 0 0 0 0 0 0 0 111 159 172 0 0 0 100 118 98 36 3 0 0 0 0 0 0 0 0 0 0 0 0 0 0 0 192 235 244 0 0 0 198 208 178 67 9 0 0 0 0 0 0 0 0 0 0 0 0 0 0 0 202 243 251 0 0 0 251 252 244 152 27 1 0 0 0 0 0 0 0 0 0 0 0 0 0 0 163 223 245 0 0 0 253 253 252 219 66 1 0 0 0 0 0 0 0 0 0 0 0 0 0 0 118 142 193 0 0 0 229 238 240 199 54 1 0 0 0 0 0 0 0 0 0 0 0 0 0 0 96 59 42 47 114 138 111 111 108 58 5 0 0 0 0 0 0 0 0 0 0 0 0 0 0 0 44 27 10 13 37 33 12 11 7 2 0 0 0 0 0 0 0 0 0 0 0 0 0 0 0 0 0 0 0 0 0 0 0 0 0 0 0 0 0 0 0 0 0 0 0 0 0 0 0 0 0 0 0 0 0 0 0 0 0 0 0 0 0 0 0 0 0 0 0 0 0 0 0 0 0 0 0 0 0 0 0 0 0 0 0 0 0 0 0 0 0 0 0 0 0 0 0 0 0 0 0 0 0 0 0 0 0 0 0 0 0 0 0 0 0 0 0 0 0 0 0 0 0 0 0 0 0 0 0 0 0 0 0 0 0 0 0 0 0 0 0 0 0 0 0 0 0 0 0 0 0 0 0 0 0 0 0 0 0 0 0 0 0 0 0 0 0 0 0 0 0 0 0 0 0 0 0 0 0 0 0 0 0 0 0 0 0 0 0 0 0 0 0 0 0 0 0 0 0 0 0 0 0 0 0 0 0 0 0 0 0 0 0 0 0 0 0 0 0 0 0 0 0 0 0 0 0 0 0 0 0 0 0 0 0 0 0 0 0 0 0 0 0 0 0 0 0 0 0 0 0 0 0 0 0 0 0 0 0 0 0 0 0 0 0 0 0 0 0 0 0 0 0 0 0 0 0 0 0 0 0 0 0 0 0 0 0 0 0 0 0 0 0 0 0 0 0 0 0 0 0 0 0 0 0 0 0 0 0 0 0 0 0 0 0 0 0 0 0 0 0 0 0 0 0 0 0 0 0 0 0 0 0 0 0 0 0 0 0 0 0 0 0 0 0 0 0 0 0 0 0 0 0 0 0 0 0 0 0 0 0 0 0 0 0 0 0 0 0 0 0 0 0 0 0 0 0 0 0 0 0 0 0 0 0 0 0 0 0 0 0 0 0 0 0 0 0 0 0 0 0 0 0 0 0 0 0 0 0 0 0 0 0 0 0 0 1 1 1 0 0 0 0 0 0 0 0 0 0 0 0 0 0 0 0 0 0 0 0 0 0 0 20 11 5 2 1 0 0 0 0 0 0 0 0 0 0 0 0 0 0 0 0 0 0 0 0 0 47 31 0 0 0 3 2 3 2 0 0 0 0 0 0 0 0 0 0 0 0 0 0 0 0 0 63 60 0 0 0 24 29 42 33 8 0 0 0 0 0 0 0 0 0 0 0 0 0 0 0 0 152 190 0 0 0 67 80 115 100 33 3 0 0 0 0 0 0 0 0 0 0 0 0 0 0 0 231 247 0 0 0 183 185 210 184 59 11 1 0 0 0 0 0 0 0 0 0 0 0 0 0 0 243 251 0 0 0 247 249 251 241 114 21 2 0 0 0 0 0 0 0 0 0 0 0 0 0 0 233 242 0 0 0 243 248 253 249 179 35 1 0 0 0 0 0 0 0 0 0 0 0 0 0 0 208 203 0 0 0 154 184 233 234 159 24 0 0 0 0 0 0 0 0 0 0 0 0 0 0 0 164 133 72 35 60 76 79 115 114 50 2 0 0 0 0 0 0 0 0 0 0 0 0 0 0 0 73 58 25 13 16 12 8 9 6 1 0 0 0 0 0 0 0 0 0 0 0 0 0 0 0 0 0 0 0 0 0 0 0 0 0 0 0 0 0 0 0 0 0 0 0 0 0 0 0 0 0 0 0 0 0 0 0 0 0 0 0 0 0 0 0 0 0 0 0 0 0 0 0 0 0 0 0 0 0 0 0 0 0 0 0 0 0 0 0 0 0 0 0 0 0 0 0 0 0 0 0 0 0 0 0 0 0 0 0 0 0 0 0 0 0 0 0 0 0 0 0 0 0 0 0 0 0 0 0 0 0 0 0 0 0 0 0 0 0 0 0 0 0 0 0 0 0 0 0 0 0 0 0 0 0 0 0 0 0 0 0 0 0 0 0 0 0 0 0 0 0 0 0 0 0 0 0 0 0 0 0 0 0 0 0 0 0 0 0 0 0 0 0 0 0 0 0 0 0 0 0 0 0 0 0 0 0 0 0 0 0 0 0 0 0 0 0 0 0 0 0 0 0 0 0 0 0 0 0 0 0 0 0 0 0 0 0 0 0 0 0 0 0 0 0 0 0 0 0 0 0 0 0 0 0 0 0 0 0 0 0 0 0 0 0 0 0 0 0 0 0 0 0 0 0 0 0 0 0 0 0 0 0 0 0 0 0 0 0 0 0 0 0 0 0 0 0 0 0 0 0 0 0 0 0 0 0 0 0 0 0 0 0 0 0 0 0 0 0 0 0 0 0 0 0 0 0 0 0 0 0 0 0 0 0 0 0 0 0 0 0 0 0 0 0 0 0 0 0 0 0 0 0 0 0 0 0 0 0 0 0 0 0 0 0 0 0 0 0 0 0 0 0 0 0 0 0 0 0 0 0 0 0 0 0 0 0 0 0 0 0 0 0 0 0 0 0 0 0 0 0 0 0 0 0 0 0 0 0 0 0 0 0 0 0 0 2 1 1 0 0 0 0 0 0 0 0 0 0 0 0 0 0 0 0 0 0 0 0 0 0 0 36 16 4 1 1 0 0 0 0 0 0 0 0 0 0 0 0 0 0 0 0 0 0 0 0 0 109 0 0 0 3 2 1 1 1 0 0 0 0 0 0 0 0 0 0 0 0 0 0 0 0 0 145 0 0 0 18 16 17 22 15 3 0 0 0 0 0 0 0 0 0 0 0 0 0 0 0 0 178 0 0 0 87 62 67 99 78 17 2 0 0 0 0 0 0 0 0 0 0 0 0 0 0 0 237 0 0 0 199 179 175 207 176 40 8 1 0 0 0 0 0 0 0 0 0 0 0 0 0 0 247 0 0 0 240 240 245 250 233 73 14 2 0 0 0 0 0 0 0 0 0 0 0 0 0 0 241 0 0 0 222 228 245 252 242 98 13 1 0 0 0 0 0 0 0 0 0 0 0 0 0 0 222 0 0 0 95 105 175 229 212 72 6 0 0 0 0 0 0 0 0 0 0 0 0 0 0 0 160 148 86 51 43 34 57 102 85 18 2 0 0 0 0 0 0 0 0 0 0 0 0 0 0 0 55 60 37 29 22 9 7 7 5 2 0 0 0 0 0 0 0 0 0 0 0 0 0 0 0 0 0 0 0 0 0 0 0 0 0 0 0 0 0 0 0 0 0 0 0 0 0 0 0 0 0 0 0 0 0 0 0 0 0 0 0 0 0 0 0 0 0 0 0 0 0 0 0 0 0 0 0 0 0 0 0 0 0 0 0 0 0 0 0 0 0 0 0 0 0 0 0 0 0 0 0 0 0 0 0 0 0 0 0 0 0 0 0 0 0 0 0 0 0 0 0 0 0 0 0 0 0 0 0 0 0 0 0 0 0 0 0 0 0 0 0 0 0 0 0 0 0 0 0 0 0 0 0 0 0 0 0 0 0 0 0 0 0 0 0 0 0 0 0 0 0 0 0 0 0 0 0 0 0 0 0 0 0 0 0 0 0 0 0 0 0 0 0 0 0 0 0 0 0 0 0 0 0 0 0 0 0 0 0 0 0 0 0 0 0 0 0 0 0 0 0 0 0 0 0 0 0 0 0 0 0 0 0 0 0 0 0 0 0 0 0 0 0 0 0 0 0 0 0 0 0 0 0 0 0 0 0 0 0 0 0 0 0 0 0 0 0 0 0 0 0 0 0 0 0 0 0 0 0 0 0 0 0 0 0 0 0 0 0 0 0 0 0 0 0 0 0 0 0 0 0 0 0 0 0 0 0 0 0 0 0 0 0 0 0 0 0 0 0 0 0 0 0 0 0 0 0 0 0 0 0 0 0 0 0 0 0 0 0 0 0 0 0 0 0 0 0 0 0 0 0 0 0 0 0 0 0 0 0 0 0 0 0 0 0 0 0 0 0 0 0 0 0 0 0 0 0 0 0 0 0 0 0 0 0 0 0 0 0 0 0 0 1 0 0 0 0 0 0 0 0 0 0 0 0 0 0 0 0 0 0 0 0 0 0 0 2 2 1 1 0 0 0 0 0 0 0 0 0 0 0 0 0 0 0 0 0 0 0 0 0 0 35 15 6 3 1 0 0 0 0 0 0 0 0 0 0 0 0 0 0 0 0 0 0 0 0 0 129 78 0 13 4 1 1 1 1 0 0 0 0 0 0 0 0 0 0 0 0 0 0 0 0 0 197 167 0 29 16 10 11 14 9 1 0 0 0 0 0 0 0 0 0 0 0 0 0 0 0 0 224 229 0 135 96 57 64 87 58 8 1 0 0 0 0 0 0 0 0 0 0 0 0 0 0 0 243 247 0 223 201 170 171 199 160 28 4 1 0 0 0 0 0 0 0 0 0 0 0 0 0 0 244 247 0 240 233 234 243 247 220 55 10 1 0 0 0 0 0 0 0 0 0 0 0 0 0 0 227 231 0 227 213 225 245 250 229 67 12 2 0 0 0 0 0 0 0 0 0 0 0 0 0 0 188 188 0 156 119 120 189 224 189 45 8 1 0 0 0 0 0 0 0 0 0 0 0 0 0 0 124 120 86 75 60 42 63 93 68 14 3 0 0 0 0 0 0 0 0 0 0 0 0 0 0 0 63 73 60 55 40 18 12 10 7 3 1 0 0 0 0 0 0 0 0 0 0 0 0 0 0 0 0 0 0 0 0 0 0 0 0 0 0 0 0 0 0 0 0 0 0 0 0 0 0 0 0 0 0 0 0 0 0 0 0 0 0 0 0 0 0 0 0 0 0 0 0 0 0 0 0 0 0 0 0 0 0 0 0 0 0 0 0 0 0 0 0 0 0 0 0 0 0 0 0 0 0 0 0 0 0 0 1 1 0 0 0 0 0 1 1 0 0 0 0 0 0 0 0 0 0 0 0 0 0 0 0 0 1 1 1 1 1 0 1 1 1 1 0 0 1 0 0 0 0 0 0 0 0 0 0 0 0 1 1 1 1 1 1 0 0 1 1 1 0 0 0 0 0 0 0 0 0 0 0 0 0 0 1 1 1 1 1 0 0 0 0 1 1 0 0 0 0 0 0 0 0 0 0 0 0 0 0 0 1 1 1 1 1 1 0 0 0 0 0 0 0 0 0 0 0 0 0 0 0 0 0 0 0 0 2 2 1 1 1 0 0 0 0 0 0 0 0 0 0 0 0 0 0 0 0 0 0 0 0 0 2 1 1 1 1 1 0 0 0 0 0 0 0 0 0 0 0 0 0 0 0 0 0 0 0 0 1 1 1 1 1 1 0 0 0 0 0 0 0 0 0 0 0 0 0 0 0 0 0 0 0 0 1 1 1 2 2 1 0 0 0 0 0 0 0 0 0 0 0 0 0 0 0 0 0 0 0 0 1 1 2 2 2 1 1 0 0 0 0 0 0 0 0 0 0 0 0 0 0 0 0 0 0 0 1 2 3 3 2 1 1 0 0 0 0 0 0 0 0 0 0 0 0 0 0 0 0 0 0 0 1 3 4 4 2 1 0 0 0 0 0 0 0 0 0 0 0 0 0 0 0 0 0 0 0 0 8 11 8 5 2 1 1 0 0 0 0 0 0 0 0 0 0 0 0 0 0 0 0 0 0 0 31 37 37 21 6 4 1 0 0 0 0 0 0 0 0 0 0 0 0 0 0 0 0 0 0 0 99 73 71 52 25 13 4 3 3 1 0 0 0 0 0 0 0 0 0 0 0 0 0 0 0 0 199 174 121 79 48 22 20 29 20 5 2 0 0 0 0 0 0 0 0 0 0 0 0 0 0 0 236 235 210 162 113 70 87 103 69 22 4 1 0 0 0 0 0 0 0 0 0 0 0 0 0 0 244 247 244 229 202 178 186 195 151 51 10 3 0 0 0 0 0 0 0 0 0 0 0 0 0 0 238 242 244 239 227 230 240 238 196 63 18 7 1 0 0 0 0 0 0 0 0 0 0 0 0 0 200 215 230 231 211 215 238 242 207 65 23 10 1 0 0 0 0 0 0 0 1 1 1 0 0 0 150 170 190 192 146 111 167 205 168 53 20 8 1 0 0 0 0 0 0 0 1 1 1 1 0 0 135 127 121 112 77 46 56 74 54 22 11 3 0 0 0 0 0 0 0 0 0 1 0 0 0 0 114 123 110 96 64 28 14 12 9 6 3 1 0 0 0 0 0 0 0 0 0 0 0 0 0 0 1 1 1 1 1 1 0 0 1 1 1 1 1 1 1 0 0 0 0 0 0 0 0 0 0 0 2 2 3 3 3 2 2 2 2 2 2 2 2 3 2 1 1 1 0 0 1 1 1 0 0 0 3 4 6 5 4 4 4 4 3 3 3 3 3 4 3 2 1 1 1 1 1 1 1 1 0 0 4 4 7 8 6 5 5 5 4 4 4 3 3 4 4 3 2 1 1 1 1 1 1 1 1 0 5 4 8 9 6 5 5 5 4 4 4 4 3 4 4 3 3 2 2 2 1 1 1 1 1 0 4 5 7 8 6 4 5 4 3 4 5 4 3 3 3 3 2 2 2 1 1 1 2 1 1 0 8 12 11 9 7 5 4 3 3 3 4 4 3 2 2 2 2 2 1 1 1 2 2 1 1 0 23 25 17 11 9 6 3 2 2 2 3 2 2 2 1 1 1 1 1 1 1 2 2 2 1 0 31 27 17 11 10 7 4 2 1 1 1 1 1 1 1 1 1 0 0 1 1 1 2 2 1 0 24 18 11 11 12 9 5 3 1 1 1 1 1 0 0 0 0 0 0 1 1 1 2 1 1 0 18 11 9 14 17 13 8 4 2 1 1 0 0 0 0 0 0 0 0 0 1 1 1 1 1 0 13 11 14 24 35 27 12 4 2 1 1 0 0 0 0 0 0 0 0 0 1 1 1 1 0 0 12 13 16 26 36 32 16 6 2 1 0 0 0 0 0 0 0 0 0 0 1 1 1 1 0 0 11 14 18 21 24 23 14 6 1 0 0 0 0 0 0 0 0 0 0 0 1 1 1 1 1 0 14 17 21 24 17 12 7 3 1 0 0 0 0 0 0 0 0 1 1 0 1 1 1 1 1 0 51 57 52 40 16 11 5 2 1 0 0 0 1 1 1 1 1 1 1 1 1 1 1 2 1 1 90 109 111 84 53 40 20 10 1 1 1 1 1 1 1 1 1 1 1 1 1 1 1 2 2 1 111 130 138 125 104 80 52 30 9 2 1 1 1 1 1 1 1 1 1 1 1 1 2 2 2 1 182 186 161 141 124 87 67 65 38 10 3 1 1 1 1 1 1 1 1 1 1 2 2 3 2 0 225 230 214 190 161 116 119 137 108 51 12 3 1 1 1 1 1 1 1 1 1 2 3 3 1 0 234 243 242 233 212 192 197 203 173 96 23 7 2 1 1 1 1 1 1 1 1 2 3 2 1 0 225 239 244 239 225 224 230 223 183 95 33 14 3 2 1 1 1 1 1 1 1 2 3 3 2 0 190 216 234 232 211 204 217 217 175 78 42 22 4 2 2 1 1 1 1 1 1 2 3 3 2 1 169 195 213 210 169 126 141 170 140 65 40 18 4 2 1 1 1 1 1 1 2 2 3 3 2 1 180 178 177 163 120 80 67 70 57 38 23 7 2 1 1 1 1 1 1 1 1 2 2 2 1 0 167 185 175 157 117 60 26 24 22 16 8 2 1 1 1 1 1 1 1 1 1 1 1 1 1 0 27 35 28 24 18 10 10 13 18 24 26 24 25 21 13 9 6 4 2 6 7 6 6 4 3 1 34 40 36 28 23 21 18 16 18 23 27 26 26 27 26 21 15 10 8 9 11 10 8 5 4 3 35 42 44 32 23 23 25 23 21 22 25 25 23 24 25 23 17 12 10 11 12 12 10 7 6 3 35 34 41 36 25 22 26 25 21 24 25 22 21 22 23 21 16 11 10 12 12 12 11 10 8 5 30 25 35 37 26 21 23 21 19 24 27 24 21 21 21 18 15 13 12 13 12 13 14 13 10 5 29 28 35 38 30 21 22 19 17 24 30 27 22 21 21 18 15 14 13 13 13 14 16 16 12 5 56 62 61 55 47 34 23 17 14 20 27 26 20 19 19 17 15 12 11 12 12 14 16 16 12 5 93 96 93 78 64 50 28 14 10 12 17 18 14 13 14 13 12 10 9 10 11 13 15 15 11 4 96 90 93 83 67 57 35 16 9 7 10 10 8 8 9 10 9 8 7 8 10 12 13 13 10 3 75 64 77 79 68 62 43 21 9 7 7 6 5 5 6 7 6 6 6 7 8 10 11 11 8 3 60 54 70 84 91 84 57 28 11 7 6 5 4 4 5 5 5 5 5 5 7 8 10 10 7 3 59 63 76 101 117 107 75 34 12 7 5 3 3 3 3 4 4 4 4 5 6 7 8 9 8 3 65 73 78 98 106 102 82 39 12 7 6 4 3 3 3 4 4 4 5 5 5 6 7 9 9 4 53 62 74 83 74 70 68 38 11 7 7 6 5 5 4 4 5 5 5 5 5 6 7 9 11 5 39 49 83 90 54 38 41 28 9 6 8 9 9 9 8 6 5 5 6 5 5 5 6 9 12 10 76 91 123 125 66 41 34 18 8 6 7 8 10 11 11 9 7 6 5 5 5 5 7 10 13 13 136 158 171 166 124 96 70 29 13 9 7 8 10 11 11 9 7 6 5 5 5 6 8 12 13 13 168 190 190 187 169 146 117 67 30 14 9 10 11 11 10 9 7 6 5 4 4 6 10 13 14 12 196 209 194 185 179 154 125 99 58 23 14 13 13 12 11 9 7 5 4 4 4 7 11 14 13 11 216 221 208 199 192 163 140 150 133 80 36 20 14 13 12 9 6 4 3 4 5 8 12 13 12 10 222 232 232 228 219 198 190 200 189 136 72 40 17 14 14 11 6 3 3 4 6 9 11 12 10 9 217 234 240 236 226 219 216 208 186 132 84 56 22 18 17 14 8 4 3 4 6 8 10 11 11 9 211 229 237 232 217 212 208 190 155 100 76 53 21 19 19 16 10 5 4 4 6 7 9 12 12 10 213 225 227 217 196 187 178 163 126 85 76 49 19 17 18 16 11 6 4 4 5 6 8 10 11 10 217 219 209 191 166 153 145 131 107 90 79 45 17 14 16 15 11 6 4 4 5 6 7 8 10 10 200 222 209 187 151 103 82 93 92 80 60 27 10 11 13 12 9 5 4 4 5 6 7 8 9 7 102 126 117 108 86 70 69 60 43 50 69 70 67 63 57 54 52 49 33 32 29 22 21 21 18 3 124 128 119 103 82 76 77 68 57 58 69 75 72 72 70 65 60 56 50 48 43 39 34 31 28 19 120 120 114 93 71 72 82 79 68 64 69 76 75 73 71 67 60 53 51 52 50 49 46 41 36 29 108 95 100 95 76 66 75 78 69 70 73 76 76 74 71 68 60 51 48 51 52 55 54 51 45 35 94 78 89 104 91 67 65 68 63 66 73 75 74 73 70 67 61 54 52 55 56 59 61 61 54 43 97 88 98 122 124 101 79 66 60 64 72 71 66 65 65 65 61 55 54 56 56 59 62 64 60 48 131 134 145 155 158 145 111 71 54 60 69 69 58 53 56 61 61 55 52 53 54 56 59 62 56 37 157 166 178 176 172 162 130 80 47 46 57 60 49 42 43 49 52 49 48 49 49 50 53 57 50 31 155 166 180 176 171 161 131 88 48 35 44 48 40 34 35 40 44 44 42 43 44 46 48 52 47 30 148 159 171 168 165 155 124 88 51 33 35 37 33 28 28 32 35 36 35 35 37 41 45 48 43 28 150 159 165 163 168 159 125 89 56 36 30 29 27 24 23 25 28 30 30 30 32 37 41 44 43 29 149 161 166 169 169 158 130 91 62 47 33 25 22 21 21 23 25 26 26 26 27 31 36 42 42 20 142 162 170 171 154 138 129 95 62 55 43 31 25 23 23 24 25 25 25 25 25 27 32 39 42 21 123 152 170 169 136 108 117 101 61 50 50 43 37 34 31 29 28 28 27 26 24 24 28 36 42 21 98 133 172 177 132 89 101 99 61 40 45 47 47 48 46 40 34 30 29 26 24 23 26 34 42 25 111 142 183 194 153 119 114 93 61 36 37 41 46 51 52 47 39 32 28 25 23 24 27 35 41 27 167 188 202 208 182 166 151 102 71 47 38 40 44 47 47 45 39 31 26 22 22 26 31 38 41 25 206 217 215 214 199 187 172 123 86 62 45 45 46 45 42 39 34 27 22 21 21 29 36 42 42 31 219 224 216 211 202 187 166 132 95 65 51 50 50 47 42 37 29 23 19 19 23 33 42 46 45 38 225 223 212 207 204 184 158 154 140 101 70 57 50 47 43 35 25 18 17 19 26 38 46 49 46 39 224 224 218 219 218 201 183 194 191 155 112 78 51 45 42 33 21 16 17 22 30 40 44 45 41 34 222 229 230 229 226 219 211 208 199 167 134 98 57 49 43 32 21 15 17 23 31 39 41 42 36 27 225 234 235 230 224 223 217 200 176 146 125 96 57 53 47 37 25 18 17 21 27 34 37 41 37 28 229 234 230 220 216 217 213 194 160 137 129 99 58 54 50 41 30 21 17 19 22 26 31 36 36 31 228 231 220 205 200 198 198 191 170 157 142 97 53 51 50 44 34 23 18 18 19 24 28 34 35 31 205 230 218 200 183 155 154 169 166 147 113 64 43 47 49 46 36 23 17 17 19 23 27 33 34 23 148 173 166 159 142 131 129 119 98 95 111 116 111 110 108 105 104 101 87 80 74 65 59 57 54 30 171 171 166 160 143 132 134 128 114 107 114 120 118 117 114 110 107 105 100 96 90 85 77 72 67 58 164 162 164 164 148 137 145 142 129 118 117 122 124 122 118 115 109 105 104 104 102 102 97 90 85 77 155 151 164 176 166 153 156 152 138 126 122 123 123 120 115 113 109 105 103 105 106 108 107 105 101 93 152 150 169 187 183 168 161 154 141 126 120 120 118 113 107 105 104 102 103 105 106 108 110 113 111 105 170 169 181 197 199 187 169 152 138 125 118 114 107 100 96 97 97 96 98 100 100 101 104 110 113 110 195 196 201 207 208 202 181 149 125 116 114 109 97 87 86 91 94 92 92 93 93 94 97 102 104 97 205 211 212 208 206 202 184 147 111 99 103 103 92 80 77 82 86 87 87 88 88 88 91 95 95 87 204 213 213 203 200 194 177 148 109 91 97 99 90 78 74 76 81 83 83 82 82 83 86 90 90 82 201 212 210 197 193 184 164 144 112 95 99 102 97 88 80 77 77 78 78 77 76 78 81 85 85 78 202 210 207 191 184 174 155 141 121 107 105 105 105 102 97 91 85 81 79 75 73 74 77 81 83 77 197 207 205 188 170 156 147 142 130 120 110 104 104 108 111 109 102 92 84 78 73 71 73 78 81 68 190 205 206 188 159 136 143 147 134 124 111 103 102 107 114 117 113 104 93 84 77 71 70 75 80 67 182 202 208 196 160 125 142 156 137 118 109 105 104 108 116 120 118 113 102 91 82 73 70 74 78 67 175 196 209 207 178 142 156 171 149 126 121 121 121 123 124 124 121 114 104 93 84 76 72 74 80 69 183 198 210 215 200 185 187 183 168 155 150 146 143 141 137 131 122 109 95 86 81 78 76 78 82 70 205 213 216 219 212 209 206 190 182 177 168 161 156 151 144 137 124 105 84 74 74 77 79 83 85 72 221 225 223 220 214 212 208 193 186 179 167 160 155 150 145 139 128 106 78 64 65 73 80 87 89 81 228 228 225 219 212 205 200 193 183 169 155 151 145 139 136 134 128 109 77 60 61 72 83 92 96 92 229 228 223 216 208 198 194 198 189 167 153 147 137 125 121 122 120 106 77 59 62 74 86 96 99 95 228 227 222 219 217 209 204 210 205 187 171 159 141 121 112 111 108 93 70 59 64 74 84 94 93 86 226 228 227 226 227 224 218 217 213 202 190 175 152 128 112 106 97 77 61 60 66 74 80 90 86 75 226 231 231 228 228 228 224 216 209 199 189 176 158 143 124 110 97 81 71 68 67 71 76 87 86 76 229 232 229 225 225 225 224 217 205 197 191 179 165 157 139 119 108 100 92 81 68 65 70 82 85 79 227 230 224 220 220 219 220 218 210 205 198 182 167 161 145 128 121 116 106 87 66 60 65 77 83 79 201 228 222 216 215 206 208 212 208 200 186 167 158 154 145 136 131 124 111 84 61 58 64 75 81 61 95 115 108 104 97 91 89 86 78 74 78 80 79 78 75 72 70 68 64 60 56 52 46 42 41 29 113 112 110 112 103 92 93 92 85 79 80 82 82 82 79 76 73 70 68 66 64 62 56 50 47 44 105 107 116 128 118 103 106 104 95 87 82 83 84 84 82 81 77 74 73 73 74 73 69 64 60 57 103 109 126 144 138 127 126 119 106 91 84 82 81 79 76 76 74 74 75 75 75 76 75 75 73 71 109 117 138 154 153 144 138 127 113 95 84 80 76 70 65 65 66 70 72 73 72 73 74 78 80 79 131 136 148 158 158 151 140 125 111 96 85 77 71 63 57 57 58 61 65 66 65 65 68 73 77 79 156 158 157 156 153 147 135 115 98 86 79 73 65 57 53 53 54 56 58 60 59 60 62 65 70 74 165 168 160 146 140 135 124 106 85 73 71 68 62 55 51 51 52 54 56 56 56 57 58 60 64 66 163 169 158 137 128 124 114 101 81 69 70 70 65 57 52 50 51 53 54 54 54 54 56 57 60 62 156 164 156 132 121 115 106 97 82 75 79 79 77 71 63 56 54 54 54 53 52 51 53 54 57 58 149 158 154 129 111 103 98 97 89 87 88 88 89 89 85 76 67 61 59 56 52 50 50 52 54 56 144 154 151 124 99 89 93 101 97 94 91 90 92 97 100 97 87 76 68 62 56 51 49 50 52 54 140 153 147 119 90 78 91 105 101 92 85 84 87 94 102 105 100 90 78 69 62 53 50 49 52 54 138 151 149 127 96 77 93 113 106 89 79 79 81 89 99 105 104 98 87 76 67 58 52 50 52 54 139 151 153 145 122 100 114 131 121 105 98 96 96 97 101 103 103 98 88 78 69 62 56 53 54 56 147 154 156 156 148 140 146 149 144 141 135 129 124 119 113 107 101 91 79 72 67 63 59 57 58 58 159 162 161 161 160 161 161 155 158 162 156 147 140 133 125 116 105 87 68 60 60 60 60 60 62 61 169 171 167 162 160 160 159 157 160 160 151 144 138 133 128 123 113 92 64 50 51 54 58 63 66 66 175 175 170 161 153 151 154 159 158 148 137 132 125 119 118 119 115 97 66 46 46 50 56 65 71 71 177 176 170 160 149 145 152 163 157 139 130 126 116 104 100 106 109 96 67 45 44 48 56 67 73 73 175 175 170 163 158 155 159 165 158 146 142 136 121 101 93 97 98 84 59 43 43 47 55 66 69 66 172 174 172 170 171 170 167 166 162 157 156 149 132 107 94 93 87 68 49 43 44 46 53 64 65 60 171 175 174 173 174 175 170 164 162 158 154 149 139 123 105 95 86 71 60 54 49 48 52 62 65 62 173 175 173 171 173 174 172 166 162 158 153 151 147 138 120 102 95 90 83 70 54 47 50 59 64 63 171 174 170 168 170 170 172 169 165 162 160 156 151 143 127 111 106 105 98 77 53 44 47 56 62 62 140 171 167 163 166 165 168 167 162 163 158 150 143 136 125 116 115 114 102 75 49 43 45 54 61 48 0 0 0 0 0 0 0 0 0 0 0 0 0 0 0 0 0 0 0 0 0 0 0 0 0 0 0 0 0 0 0 0 0 0 0 0 0 0 0 0 0 0 0 0 0 0 0 0 0 0 0 0 0 0 0 0 0 0 0 0 0 0 0 0 0 0 0 0 0 0 0 0 0 0 0 0 0 0 0 0 0 0 0 0 0 0 0 0 0 0 0 0 0 0 0 0 0 0 0 0 0 0 0 0 0 0 0 0 0 0 0 0 0 0 0 0 0 0 0 0 0 0 0 0 0 0 0 0 0 0 0 0 0 0 0 0 0 0 0 0 0 0 0 0 0 0 0 0 0 0 0 0 0 0 0 0 0 0 0 0 0 0 0 0 0 0 0 0 0 0 0 0 0 0 0 0 0 0 0 0 0 0 0 0 0 0 0 0 0 0 0 0 0 0 0 0 0 0 0 0 0 0 0 0 0 0 0 0 0 0 0 0 0 0 0 0 0 0 0 0 0 0 0 0 0 0 0 0 0 0 0 0 0 0 0 0 0 0 0 0 0 0 0 0 0 0 0 0 0 0 0 0 0 0 0 0 0 0 0 0 0 0 0 0 0 0 0 0 0 0 0 0 0 0 0 0 0 0 0 0 0 0 0 0 0 0 0 0 0 0 0 0 0 0 0 0 0 0 0 0 0 0 0 0 0 0 0 0 0 0 0 0 0 0 0 0 0 0 0 0 0 0 0 0 0 0 0 0 0 0 0 0 0 0 0 0 0 0 0 0 0 0 0 0 0 0 0 0 0 0 0 0 0 0 0 0 0 0 0 0 0 0 0 0 0 0 0 0 0 0 0 0 0 0 0 0 0 0 0 0 0 0 0 0 0 0 0 0 0 0 0 0 0 0 0 0 0 0 0 0 0 0 0 0 0 0 0 0 0 0 0 0 0 0 0 0 0 0 0 0 0 0 0 0 0 0 0 0 0 0 0 0 0 0 0 0 0 0 0 0 0 0 0 0 0 0 0 0 0 0 0 0 0 0 0 0 0 0 0 0 0 0 0 0 0 0 0 0 0 0 0 0 0 0 0 0 0 0 0 0 0 0 0 0 0 0 0 0 0 0 0 0 0 0 0 0 0 0 0 0 0 0 0 0 0 0 0 0 0 0 0 0 0 0 0 0 0 0 0 0 0 0 0 0 0 0 0 0 0 0 0 0 0 0 0 0 0 0 0 0 0 0 0 0 0 0 0 0 0 0 0 0 0 0 0 0 0 0 0 0 0 0 0 0 0 0 0 0 0 0 0 0 0 0 0 0 0 0 0 0 0 0 0 0 0 0 0 0 0 0 0 0 0 0 0 0 0 0 0 0 0 0 0 0 0 0 0 0 0 0 0 0 0 0 0 0 0 0 0 0 0 0 0 0 0 0 0 0 0 0 0 0 0 0 0 0 0 0 0 0 0 0 0 0 0 0 0 0 0 0 0 0 0 0 0 0 0 0 0 0 0 0 0 0 0 0 0 0 0 0 0 0 0 0 0 0 
</DataArray>
<DataArray Name="HRRPUV" NumberOfComponents="1" type="UInt8" format="ascii">