<?xml version="1.0"?>
<VTKFile type="ImageData" version="1.0" byte_order="LittleEndian" header_type="UInt64">
<ImageData WholeExtent="0 25 0 25 1 1"
 Origin="0.0000 0.0000 0.0000" Spacing="0.6000 0.6000 0.6000">
<Piece Extent="0 25 0 25 1 1">
<PointData>
<DataArray Name="TEMPERATURE" NumberOfComponents="1" type="Float32" format="ascii">
24.6 26.3 27.3 27.4 26.6 25.1 23.9 23.3 23.3 23.1 23.3 23.8 24.7 26.5 28.7 29.8 29.7 29.6 30.4 32.6 33.1 31.5 33.0 39.6 42.3 39.2 26.8 27.9 28.7 28.3 27.0 25.7 24.8 24.6 24.8 25.1 25.6 26.2 28.0 30.8 33.4 34.4 33.9 32.5 32.2 33.9 35.0 35.9 39.4 45.2 45.8 41.6 26.6 27.6 28.8 28.1 26.8 26.0 25.6 25.7 26.0 26.6 27.3 28.6 31.5 34.8 36.7 36.6 35.3 33.4 33.1 35.1 38.3 43.3 49.2 53.4 50.3 42.6 25.5 26.5 27.2 26.5 25.8 25.4 25.4 25.7 26.0 26.5 28.2 31.3 34.8 36.7 36.3 34.5 33.2 33.6 35.7 38.2 41.2 45.7 50.1 51.8 46.7 38.2 25.2 25.8 26.0 25.6 25.4 25.1 25.2 25.9 26.4 27.3 29.9 34.2 37.8 38.4 36.8 34.7 33.9 35.2 37.6 39.1 39.7 40.6 42.2 41.8 37.7 33.3 24.1 24.7 24.9 25.1 25.3 25.0 25.3 26.0 26.6 27.9 31.5 36.3 39.2 38.7 37.1 35.9 35.3 36.4 38.4 38.3 36.1 34.0 34.0 33.1 31.4 31.1 23.9 24.3 24.5 24.9 25.3 25.2 25.5 26.0 26.2 27.5 31.4 36.3 38.9 38.8 39.2 39.7 38.4 38.2 39.4 38.0 33.8 30.7 29.6 28.3 28.1 29.9 23.3 23.9 24.5 25.3 26.0 26.0 26.1 26.0 26.2 27.3 30.5 34.4 36.9 38.3 41.1 42.4 40.0 37.7 37.5 35.6 31.9 29.6 28.2 26.7 27.0 28.7 23.2 24.3 25.2 26.1 27.0 27.1 26.8 26.6 26.6 27.9 30.3 32.8 34.7 36.5 39.7 41.1 38.8 36.3 35.6 34.4 31.7 29.8 28.7 27.5 26.8 27.3 22.8 24.0 25.3 26.3 27.2 26.9 26.7 26.9 27.5 28.4 29.5 30.6 32.2 34.3 36.6 37.3 35.8 34.4 33.9 33.4 32.1 30.8 30.5 29.4 27.5 30.1 22.7 23.6 24.8 25.9 26.3 25.9 25.9 26.7 27.8 28.6 29.0 29.9 32.1 34.2 35.2 34.7 34.0 33.9 33.5 33.0 32.4 32.0 32.6 32.2 32.8 43.2 22.3 23.4 24.7 25.4 25.7 25.5 25.4 25.9 26.9 27.5 27.9 29.4 32.1 34.0 34.5 34.1 34.2 34.4 33.8 33.0 32.3 32.0 33.8 37.6 45.2 59.6 22.1 23.5 24.8 25.1 25.3 25.1 25.0 25.5 26.2 26.7 27.3 29.2 31.5 33.2 34.2 34.3 34.4 34.6 34.7 34.3 33.1 32.7 35.5 44.3 55.8 65.3 22.2 23.3 24.4 24.7 24.9 24.8 24.9 25.4 26.3 26.9 27.8 29.7 31.6 33.0 33.9 34.0 34.8 36.8 38.3 37.9 36.2 35.3 38.0 46.7 54.6 58.5 22.0 23.0 24.0 24.7 24.7 24.4 24.6 25.3 26.2 27.2 28.4 30.3 31.9 32.8 33.1 33.0 35.0 39.3 41.6 40.2 37.0 35.0 36.7 42.0 46.1 49.9 21.8 22.8 24.1 24.9 24.7 24.3 24.6 25.2 25.9 26.7 27.9 29.6 31.3 32.0 31.7 31.6 33.7 38.2 40.6 38.2 34.1 31.7 33.1 36.5 40.3 51.0 21.4 22.6 24.3 25.2 25.0 24.7 25.1 25.4 25.8 26.3 27.3 28.8 30.5 30.9 30.4 30.6 32.3 35.6 37.4 35.3 33.0 33.2 36.7 42.4 49.8 68.6 21.3 22.6 24.2 24.8 24.8 25.1 25.8 26.0 26.2 26.6 27.3 28.5 29.9 30.3 30.2 31.2 33.3 35.2 35.4 34.1 34.2 38.1 48.1 61.1 76.7 98.3 21.2 22.5 23.8 24.0 24.1 24.8 26.0 26.6 26.7 26.9 27.3 28.1 29.2 29.8 30.5 32.9 35.6 36.4 35.3 34.5 34.9 43.4 64.1 81.5 99.2 117.8 21.3 22.4 23.3 23.4 23.7 24.4 25.8 26.8 26.7 26.7 26.9 27.5 28.6 29.5 30.9 34.0 36.8 37.2 36.1 35.9 35.5 49.6 75.7 87.8 97.1 112.7 21.5 22.5 23.4 23.5 23.9 24.5 25.9 27.0 26.9 26.9 27.1 27.6 28.6 29.4 30.7 33.9 37.5 38.6 38.1 38.4 37.6 54.1 82.5 96.7 103.8 115.8 21.3 22.6 23.9 24.3 24.6 24.8 26.2 27.7 27.9 28.0 28.1 28.6 29.3 28.9 30.1 35.5 40.9 40.5 37.6 36.8 41.3 62.7 91.3 109.2 119.7 128.4 22.1 23.5 24.6 24.7 24.9 25.0 26.3 27.9 28.4 28.2 28.3 29.1 29.6 29.0 31.8 40.2 46.1 43.2 37.2 35.4 41.7 65.5 91.3 104.5 116.3 126.5 22.7 24.4 25.5 25.2 25.1 25.2 26.0 27.2 27.9 27.8 28.2 29.0 29.2 28.8 31.5 40.5 49.2 48.2 42.6 40.3 40.1 52.8 74.7 89.2 103.2 114.2 21.8 23.8 25.7 25.8 25.5 25.2 25.6 26.5 27.2 27.7 28.3 28.6 28.4 28.1 29.3 38.7 52.1 54.7 48.4 43.7 41.2 42.0 50.7 61.8 78.9 95.7 21.7 23.3 25.2 25.4 25.1 24.9 25.2 25.9 26.7 27.7 28.9 29.2 28.7 28.3 29.3 37.3 52.2 58.9 53.0 45.7 42.6 40.3 38.2 39.1 51.9 60.0 
</DataArray>
</PointData>
</Piece>
</ImageData>
</VTKFile>
