<?xml version="1.0"?>
<VTKFile type="ImageData" version="1.0" byte_order="LittleEndian" header_type="UInt64">
<ImageData WholeExtent="0 25 25 50 0 15"
 Origin="0.0000 15.0000 0.0000" Spacing="0.6000 0.6000 0.6000">
<Piece Extent="0 25 25 50 0 15">
<PointData>
<DataArray Name="TEMPERATURE" NumberOfComponents="1" type="Float32" format="ascii">
20.0 20.0 20.1 20.1 20.1 20.2 20.2 20.3 20.4 20.4 20.5 20.6 20.7 20.8 20.9 21.1 21.2 21.4 21.5 21.7 22.0 22.3 22.7 23.1 23.4 22.8 20.0 20.0 20.1 20.1 20.2 20.2 20.3 20.3 20.4 20.4 20.5 20.6 20.7 20.8 20.9 21.0 21.1 21.2 21.4 21.6 21.8 22.1 22.4 22.7 23.0 23.5 20.0 20.0 20.1 20.1 20.1 20.2 20.2 20.3 20.3 20.4 20.4 20.5 20.6 20.7 20.8 20.9 21.0 21.2 21.3 21.5 21.7 21.9 22.2 22.5 22.8 23.1 20.0 20.0 20.1 20.1 20.1 20.2 20.2 20.2 20.3 20.3 20.4 20.5 20.6 20.6 20.8 20.9 21.0 21.1 21.3 21.5 21.6 21.8 22.0 22.2 22.5 22.7 20.0 20.0 20.1 20.1 20.1 20.1 20.2 20.2 20.3 20.3 20.4 20.5 20.6 20.6 20.7 20.9 21.0 21.1 21.2 21.4 21.5 21.7 21.9 22.0 22.2 22.4 20.0 20.0 20.0 20.1 20.1 20.1 20.2 20.2 20.3 20.3 20.4 20.5 20.6 20.7 20.8 20.9 21.0 21.1 21.2 21.3 21.4 21.6 21.7 21.8 22.0 22.1 20.0 20.0 20.0 20.1 20.1 20.1 20.2 20.2 20.3 20.3 20.4 20.5 20.6 20.7 20.7 20.8 20.9 21.0 21.1 21.2 21.3 21.4 21.5 21.6 21.8 21.9 20.0 20.0 20.0 20.1 20.1 20.1 20.2 20.2 20.3 20.3 20.4 20.5 20.6 20.6 20.7 20.8 20.9 20.9 21.0 21.1 21.2 21.3 21.4 21.5 21.6 21.6 20.0 20.0 20.1 20.1 20.1 20.1 20.2 20.2 20.3 20.3 20.4 20.5 20.5 20.6 20.7 20.7 20.8 20.9 20.9 21.0 21.1 21.2 21.3 21.3 21.4 21.4 20.0 20.0 20.1 20.1 20.1 20.1 20.2 20.2 20.3 20.3 20.4 20.5 20.5 20.6 20.6 20.7 20.7 20.8 20.9 20.9 21.0 21.1 21.1 21.2 21.2 21.2 20.0 20.0 20.1 20.1 20.1 20.1 20.2 20.2 20.3 20.3 20.4 20.4 20.5 20.5 20.6 20.6 20.7 20.7 20.8 20.9 20.9 21.0 21.0 21.0 21.1 21.1 20.0 20.0 20.0 20.1 20.1 20.1 20.2 20.2 20.3 20.3 20.4 20.4 20.5 20.5 20.5 20.6 20.6 20.7 20.7 20.8 20.8 20.9 20.9 20.9 20.9 20.9 20.0 20.0 20.0 20.1 20.1 20.1 20.2 20.2 20.3 20.3 20.3 20.4 20.4 20.5 20.5 20.5 20.6 20.6 20.7 20.7 20.8 20.8 20.8 20.8 20.8 20.8 20.0 20.0 20.0 20.1 20.1 20.1 20.2 20.2 20.3 20.3 20.3 20.4 20.4 20.4 20.5 20.5 20.5 20.6 20.6 20.6 20.7 20.7 20.7 20.7 20.7 20.7 20.0 20.0 20.0 20.1 20.1 20.1 20.2 20.2 20.2 20.3 20.3 20.3 20.4 20.4 20.4 20.5 20.5 20.5 20.5 20.6 20.6 20.6 20.6 20.6 20.6 20.6 20.0 20.0 20.0 20.1 20.1 20.1 20.2 20.2 20.2 20.3 20.3 20.3 20.3 20.4 20.4 20.4 20.4 20.4 20.5 20.5 20.5 20.5 20.5 20.5 20.5 20.5 20.0 20.0 20.0 20.1 20.1 20.1 20.2 20.2 20.2 20.3 20.3 20.3 20.3 20.3 20.3 20.4 20.4 20.4 20.4 20.4 20.4 20.4 20.4 20.4 20.4 20.5 20.0 20.0 20.0 20.1 20.1 20.1 20.2 20.2 20.2 20.2 20.2 20.3 20.3 20.3 20.3 20.3 20.3 20.3 20.3 20.3 20.3 20.3 20.4 20.4 20.4 20.4 20.0 20.0 20.0 20.1 20.1 20.1 20.2 20.2 20.2 20.2 20.2 20.2 20.2 20.2 20.2 20.2 20.2 20.3 20.3 20.3 20.3 20.3 20.3 20.3 20.3 20.3 20.0 20.0 20.0 20.1 20.1 20.1 20.2 20.2 20.2 20.2 20.2 20.2 20.2 20.2 20.2 20.2 20.2 20.2 20.2 20.2 20.2 20.2 20.2 20.2 20.3 20.3 20.0 20.0 20.1 20.1 20.1 20.1 20.1 20.1 20.1 20.1 20.1 20.1 20.1 20.1 20.1 20.2 20.2 20.2 20.2 20.2 20.2 20.2 20.2 20.2 20.2 20.2 20.0 20.0 20.1 20.1 20.1 20.1 20.1 20.1 20.1 20.1 20.1 20.1 20.1 20.1 20.1 20.1 20.1 20.1 20.1 20.1 20.1 20.1 20.1 20.1 20.1 20.2 20.0 20.0 20.1 20.1 20.1 20.1 20.1 20.1 20.1 20.1 20.1 20.1 20.1 20.1 20.1 20.1 20.1 20.1 20.1 20.1 20.1 20.1 20.1 20.1 20.1 20.1 20.0 20.0 20.1 20.1 20.1 20.1 20.0 20.0 20.0 20.0 20.0 20.0 20.0 20.0 20.0 20.1 20.1 20.1 20.1 20.1 20.1 20.1 20.1 20.1 20.1 20.1 20.0 20.0 20.0 20.0 20.0 20.0 20.0 20.0 20.0 20.0 20.0 20.0 20.0 20.0 20.0 20.0 20.0 20.0 20.0 20.0 20.0 20.0 20.0 20.0 20.0 20.0 20.0 20.0 20.0 20.0 20.0 20.0 20.0 20.0 20.0 20.0 20.0 20.0 20.0 20.0 20.0 20.0 20.0 20.0 20.0 20.0 20.0 20.0 20.0 20.0 20.0 20.0 20.0 20.0 20.1 20.1 20.1 20.2 20.2 20.3 20.3 20.4 20.5 20.6 20.7 20.8 20.9 21.0 21.2 21.3 21.5 21.7 22.0 22.3 22.7 23.1 23.5 22.9 20.0 20.0 20.1 20.1 20.1 20.2 20.2 20.3 20.3 20.4 20.5 20.5 20.6 20.7 20.8 20.9 21.1 21.2 21.4 21.6 21.8 22.1 22.4 22.7 23.1 23.6 20.0 20.0 20.1 20.1 20.1 20.2 20.2 20.3 20.3 20.4 20.4 20.5 20.6 20.7 20.8 20.9 21.0 21.1 21.3 21.5 21.7 21.9 22.2 22.5 22.8 23.2 20.0 20.0 20.1 20.1 20.1 20.1 20.2 20.2 20.3 20.3 20.4 20.4 20.5 20.6 20.7 20.8 21.0 21.1 21.3 21.4 21.6 21.8 22.0 22.3 22.5 22.8 20.0 20.0 20.0 20.1 20.1 20.1 20.2 20.2 20.2 20.3 20.4 20.4 20.5 20.6 20.7 20.8 20.9 21.1 21.2 21.3 21.5 21.7 21.8 22.0 22.2 22.4 20.0 20.0 20.0 20.1 20.1 20.1 20.2 20.2 20.2 20.3 20.4 20.4 20.5 20.6 20.7 20.8 20.9 21.0 21.1 21.2 21.4 21.5 21.7 21.8 22.0 22.1 20.0 20.0 20.0 20.1 20.1 20.1 20.2 20.2 20.3 20.3 20.4 20.5 20.5 20.6 20.7 20.8 20.9 21.0 21.1 21.2 21.3 21.4 21.5 21.6 21.7 21.8 20.0 20.0 20.0 20.1 20.1 20.1 20.2 20.2 20.3 20.3 20.4 20.5 20.5 20.6 20.7 20.7 20.8 20.9 21.0 21.1 21.2 21.2 21.3 21.4 21.5 21.6 20.0 20.0 20.0 20.1 20.1 20.1 20.2 20.2 20.3 20.3 20.4 20.4 20.5 20.6 20.6 20.7 20.8 20.8 20.9 21.0 21.1 21.1 21.2 21.3 21.3 21.4 20.0 20.0 20.0 20.1 20.1 20.1 20.2 20.2 20.3 20.3 20.4 20.4 20.5 20.5 20.6 20.6 20.7 20.8 20.8 20.9 21.0 21.0 21.1 21.1 21.2 21.2 20.0 20.0 20.0 20.1 20.1 20.1 20.2 20.2 20.3 20.3 20.4 20.4 20.4 20.5 20.5 20.6 20.6 20.7 20.8 20.8 20.9 20.9 21.0 21.0 21.0 21.0 20.0 20.0 20.0 20.1 20.1 20.1 20.2 20.2 20.3 20.3 20.3 20.4 20.4 20.5 20.5 20.6 20.6 20.6 20.7 20.7 20.8 20.8 20.8 20.9 20.9 20.9 20.0 20.0 20.0 20.1 20.1 20.1 20.2 20.2 20.2 20.3 20.3 20.4 20.4 20.4 20.5 20.5 20.5 20.6 20.6 20.7 20.7 20.7 20.7 20.7 20.8 20.8 20.0 20.0 20.0 20.1 20.1 20.1 20.2 20.2 20.2 20.3 20.3 20.3 20.4 20.4 20.4 20.5 20.5 20.5 20.6 20.6 20.6 20.6 20.6 20.6 20.6 20.7 20.0 20.0 20.0 20.1 20.1 20.1 20.2 20.2 20.2 20.3 20.3 20.3 20.3 20.4 20.4 20.4 20.5 20.5 20.5 20.5 20.5 20.5 20.5 20.5 20.6 20.6 20.0 20.0 20.0 20.1 20.1 20.1 20.2 20.2 20.2 20.2 20.3 20.3 20.3 20.3 20.4 20.4 20.4 20.4 20.4 20.4 20.4 20.5 20.5 20.5 20.5 20.5 20.0 20.0 20.0 20.1 20.1 20.1 20.2 20.2 20.2 20.2 20.3 20.3 20.3 20.3 20.3 20.3 20.3 20.3 20.4 20.4 20.4 20.4 20.4 20.4 20.4 20.4 20.0 20.0 20.0 20.1 20.1 20.1 20.2 20.2 20.2 20.2 20.2 20.2 20.3 20.3 20.3 20.3 20.3 20.3 20.3 20.3 20.3 20.3 20.3 20.3 20.3 20.3 20.0 20.0 20.0 20.1 20.1 20.1 20.2 20.2 20.2 20.2 20.2 20.2 20.2 20.2 20.2 20.2 20.2 20.2 20.2 20.2 20.2 20.3 20.3 20.3 20.3 20.3 20.0 20.0 20.0 20.1 20.1 20.1 20.1 20.2 20.2 20.2 20.2 20.2 20.2 20.2 20.2 20.2 20.2 20.2 20.2 20.2 20.2 20.2 20.2 20.2 20.2 20.2 20.0 20.0 20.0 20.1 20.1 20.1 20.1 20.1 20.1 20.1 20.1 20.1 20.1 20.1 20.1 20.1 20.1 20.1 20.2 20.2 20.2 20.2 20.2 20.2 20.2 20.2 20.0 20.0 20.1 20.1 20.1 20.1 20.1 20.1 20.1 20.1 20.1 20.1 20.1 20.1 20.1 20.1 20.1 20.1 20.1 20.1 20.1 20.1 20.1 20.1 20.1 20.1 20.0 20.0 20.1 20.1 20.1 20.1 20.1 20.1 20.1 20.1 20.1 20.1 20.1 20.1 20.1 20.1 20.1 20.1 20.1 20.1 20.1 20.1 20.1 20.1 20.1 20.1 20.0 20.0 20.1 20.1 20.1 20.0 20.0 20.0 20.0 20.0 20.0 20.0 20.0 20.0 20.0 20.0 20.0 20.0 20.1 20.1 20.1 20.1 20.1 20.1 20.1 20.1 20.0 20.0 20.0 20.0 20.0 20.0 20.0 20.0 20.0 20.0 20.0 20.0 20.0 20.0 20.0 20.0 20.0 20.0 20.0 20.0 20.0 20.0 20.0 20.0 20.0 20.0 20.0 20.0 20.0 20.0 20.0 20.0 20.0 20.0 20.0 20.0 20.0 20.0 20.0 20.0 20.0 20.0 20.0 20.0 20.0 20.0 20.0 20.0 20.0 20.0 20.0 20.0 20.0 20.0 20.0 20.1 20.1 20.1 20.2 20.2 20.3 20.3 20.4 20.5 20.6 20.7 20.8 21.0 21.1 21.3 21.5 21.7 22.0 22.3 22.7 23.2 23.7 23.1 20.0 20.0 20.0 20.1 20.1 20.1 20.2 20.2 20.3 20.3 20.4 20.5 20.6 20.7 20.8 20.9 21.0 21.1 21.3 21.5 21.8 22.1 22.4 22.8 23.3 23.8 20.0 20.0 20.0 20.1 20.1 20.1 20.2 20.2 20.3 20.3 20.4 20.4 20.5 20.6 20.7 20.8 20.9 21.1 21.2 21.4 21.7 21.9 22.2 22.5 22.9 23.3 20.0 20.0 20.0 20.1 20.1 20.1 20.2 20.2 20.2 20.3 20.3 20.4 20.5 20.6 20.7 20.8 20.9 21.0 21.2 21.4 21.6 21.8 22.0 22.3 22.6 22.9 20.0 20.0 20.0 20.1 20.1 20.1 20.1 20.2 20.2 20.3 20.3 20.4 20.5 20.6 20.6 20.8 20.9 21.0 21.1 21.3 21.4 21.6 21.8 22.0 22.2 22.5 20.0 20.0 20.0 20.1 20.1 20.1 20.1 20.2 20.2 20.3 20.3 20.4 20.5 20.6 20.6 20.7 20.8 20.9 21.0 21.2 21.3 21.5 21.6 21.8 21.9 22.2 20.0 20.0 20.0 20.1 20.1 20.1 20.1 20.2 20.2 20.3 20.3 20.4 20.5 20.5 20.6 20.7 20.8 20.9 21.0 21.1 21.2 21.3 21.4 21.6 21.7 21.9 20.0 20.0 20.0 20.1 20.1 20.1 20.1 20.2 20.2 20.3 20.3 20.4 20.5 20.5 20.6 20.7 20.7 20.8 20.9 21.0 21.1 21.2 21.2 21.4 21.5 21.7 20.0 20.0 20.0 20.1 20.1 20.1 20.1 20.2 20.2 20.3 20.3 20.4 20.4 20.5 20.5 20.6 20.7 20.7 20.8 20.9 21.0 21.0 21.1 21.2 21.3 21.5 20.0 20.0 20.0 20.1 20.1 20.1 20.1 20.2 20.2 20.3 20.3 20.4 20.4 20.5 20.5 20.6 20.6 20.7 20.7 20.8 20.8 20.9 21.0 21.0 21.2 21.4 20.0 20.0 20.0 20.1 20.1 20.1 20.1 20.2 20.2 20.3 20.3 20.3 20.4 20.4 20.5 20.5 20.6 20.6 20.7 20.7 20.8 20.8 20.8 20.9 21.0 21.2 20.0 20.0 20.0 20.1 20.1 20.1 20.1 20.2 20.2 20.3 20.3 20.3 20.4 20.4 20.4 20.5 20.5 20.6 20.6 20.6 20.7 20.7 20.7 20.8 20.8 21.0 20.0 20.0 20.0 20.1 20.1 20.1 20.1 20.2 20.2 20.2 20.3 20.3 20.3 20.4 20.4 20.4 20.5 20.5 20.5 20.6 20.6 20.6 20.6 20.7 20.7 20.9 20.0 20.0 20.0 20.1 20.1 20.1 20.1 20.2 20.2 20.2 20.3 20.3 20.3 20.3 20.4 20.4 20.4 20.4 20.5 20.5 20.5 20.5 20.5 20.6 20.6 20.8 20.0 20.0 20.0 20.1 20.1 20.1 20.1 20.2 20.2 20.2 20.2 20.3 20.3 20.3 20.3 20.4 20.4 20.4 20.4 20.4 20.4 20.5 20.5 20.5 20.5 20.6 20.0 20.0 20.0 20.1 20.1 20.1 20.1 20.2 20.2 20.2 20.2 20.2 20.3 20.3 20.3 20.3 20.3 20.3 20.4 20.4 20.4 20.4 20.4 20.4 20.4 20.4 20.0 20.0 20.0 20.1 20.1 20.1 20.1 20.2 20.2 20.2 20.2 20.2 20.2 20.3 20.3 20.3 20.3 20.3 20.3 20.3 20.3 20.3 20.3 20.3 20.3 20.3 20.0 20.0 20.0 20.1 20.1 20.1 20.1 20.2 20.2 20.2 20.2 20.2 20.2 20.2 20.2 20.2 20.2 20.2 20.2 20.2 20.3 20.3 20.3 20.3 20.3 20.3 20.0 20.0 20.0 20.1 20.1 20.1 20.1 20.1 20.2 20.2 20.2 20.2 20.2 20.2 20.2 20.2 20.2 20.2 20.2 20.2 20.2 20.2 20.2 20.2 20.2 20.2 20.0 20.0 20.0 20.1 20.1 20.1 20.1 20.1 20.1 20.1 20.1 20.1 20.1 20.1 20.1 20.1 20.1 20.1 20.2 20.2 20.2 20.2 20.2 20.2 20.2 20.2 20.0 20.0 20.0 20.1 20.1 20.1 20.1 20.1 20.1 20.1 20.1 20.1 20.1 20.1 20.1 20.1 20.1 20.1 20.1 20.1 20.1 20.1 20.1 20.1 20.1 20.1 20.0 20.0 20.0 20.1 20.1 20.1 20.1 20.1 20.1 20.1 20.1 20.1 20.1 20.1 20.1 20.1 20.1 20.1 20.1 20.1 20.1 20.1 20.1 20.1 20.1 20.1 20.0 20.0 20.1 20.1 20.1 20.1 20.1 20.1 20.1 20.1 20.1 20.1 20.1 20.1 20.1 20.1 20.1 20.1 20.1 20.1 20.1 20.1 20.1 20.1 20.1 20.1 20.0 20.0 20.0 20.1 20.0 20.0 20.0 20.0 20.0 20.0 20.0 20.0 20.0 20.0 20.0 20.0 20.0 20.0 20.0 20.0 20.0 20.0 20.0 20.0 20.0 20.0 20.0 20.0 20.0 20.0 20.0 20.0 20.0 20.0 20.0 20.0 20.0 20.0 20.0 20.0 20.0 20.0 20.0 20.0 20.0 20.0 20.0 20.0 20.0 20.0 20.0 20.0 20.0 20.0 20.0 20.0 20.0 20.0 20.0 20.0 20.0 20.0 20.0 20.0 20.0 20.0 20.0 20.0 20.0 20.0 20.0 20.0 20.0 20.0 20.0 20.0 20.0 20.0 20.0 20.0 20.0 20.1 20.1 20.1 20.2 20.2 20.3 20.3 20.4 20.5 20.6 20.7 20.8 20.9 21.1 21.3 21.5 21.7 22.0 22.4 22.8 23.3 24.1 23.5 20.0 20.0 20.0 20.1 20.1 20.1 20.2 20.2 20.3 20.3 20.4 20.5 20.5 20.6 20.7 20.9 21.0 21.1 21.3 21.6 21.8 22.1 22.5 22.9 23.4 24.0 20.0 20.0 20.0 20.1 20.1 20.1 20.2 20.2 20.2 20.3 20.4 20.4 20.5 20.6 20.7 20.8 20.9 21.1 21.3 21.5 21.7 22.0 22.3 22.6 23.0 23.5 20.0 20.0 20.0 20.1 20.1 20.1 20.1 20.2 20.2 20.3 20.3 20.4 20.5 20.6 20.7 20.8 20.9 21.0 21.2 21.4 21.6 21.8 22.1 22.3 22.7 23.0 20.0 20.0 20.0 20.1 20.1 20.1 20.1 20.2 20.2 20.3 20.3 20.4 20.5 20.6 20.6 20.7 20.9 21.0 21.1 21.3 21.4 21.6 21.9 22.1 22.3 22.6 20.0 20.0 20.0 20.1 20.1 20.1 20.1 20.2 20.2 20.3 20.3 20.4 20.5 20.5 20.6 20.7 20.8 20.9 21.0 21.2 21.3 21.5 21.7 21.8 22.0 22.3 20.0 20.0 20.0 20.1 20.1 20.1 20.1 20.2 20.2 20.3 20.3 20.4 20.5 20.5 20.6 20.7 20.8 20.9 21.0 21.1 21.2 21.3 21.5 21.6 21.8 22.1 20.0 20.0 20.0 20.1 20.1 20.1 20.1 20.2 20.2 20.3 20.3 20.4 20.4 20.5 20.6 20.6 20.7 20.8 20.9 21.0 21.1 21.2 21.3 21.5 21.7 22.1 20.0 20.0 20.0 20.1 20.1 20.1 20.1 20.2 20.2 20.3 20.3 20.4 20.4 20.5 20.5 20.6 20.6 20.7 20.8 20.9 20.9 21.0 21.1 21.4 21.7 22.2 20.0 20.0 20.0 20.1 20.1 20.1 20.1 20.2 20.2 20.3 20.3 20.3 20.4 20.4 20.5 20.5 20.6 20.6 20.7 20.8 20.8 20.9 21.0 21.2 21.4 21.8 20.0 20.0 20.0 20.1 20.1 20.1 20.1 20.2 20.2 20.3 20.3 20.3 20.4 20.4 20.4 20.5 20.5 20.6 20.6 20.7 20.7 20.8 20.8 21.0 21.1 21.4 20.0 20.0 20.0 20.1 20.1 20.1 20.1 20.2 20.2 20.2 20.3 20.3 20.3 20.4 20.4 20.4 20.5 20.5 20.6 20.6 20.6 20.7 20.7 20.8 20.9 21.1 20.0 20.0 20.0 20.1 20.1 20.1 20.1 20.2 20.2 20.2 20.3 20.3 20.3 20.3 20.4 20.4 20.4 20.5 20.5 20.5 20.6 20.6 20.6 20.7 20.8 21.0 20.0 20.0 20.0 20.1 20.1 20.1 20.1 20.2 20.2 20.2 20.2 20.3 20.3 20.3 20.3 20.4 20.4 20.4 20.4 20.5 20.5 20.5 20.5 20.6 20.6 20.9 20.0 20.0 20.0 20.1 20.1 20.1 20.1 20.2 20.2 20.2 20.2 20.2 20.3 20.3 20.3 20.3 20.3 20.4 20.4 20.4 20.4 20.4 20.4 20.4 20.5 20.7 20.0 20.0 20.0 20.1 20.1 20.1 20.1 20.2 20.2 20.2 20.2 20.2 20.2 20.3 20.3 20.3 20.3 20.3 20.3 20.3 20.3 20.3 20.3 20.3 20.3 20.5 20.0 20.0 20.0 20.1 20.1 20.1 20.1 20.1 20.2 20.2 20.2 20.2 20.2 20.2 20.2 20.3 20.3 20.3 20.3 20.3 20.3 20.3 20.3 20.3 20.3 20.3 20.0 20.0 20.0 20.1 20.1 20.1 20.1 20.1 20.1 20.2 20.2 20.2 20.2 20.2 20.2 20.2 20.2 20.2 20.2 20.2 20.2 20.2 20.2 20.2 20.2 20.2 20.0 20.0 20.0 20.1 20.1 20.1 20.1 20.1 20.1 20.1 20.2 20.2 20.2 20.2 20.2 20.2 20.2 20.2 20.2 20.2 20.2 20.2 20.2 20.2 20.2 20.2 20.0 20.0 20.0 20.1 20.1 20.1 20.1 20.1 20.1 20.1 20.1 20.1 20.1 20.1 20.1 20.1 20.1 20.1 20.1 20.1 20.1 20.1 20.1 20.1 20.1 20.2 20.0 20.0 20.0 20.1 20.1 20.1 20.1 20.1 20.1 20.1 20.1 20.1 20.1 20.1 20.1 20.1 20.1 20.1 20.1 20.1 20.1 20.1 20.1 20.1 20.1 20.1 20.0 20.0 20.0 20.1 20.1 20.1 20.1 20.1 20.1 20.1 20.1 20.1 20.1 20.1 20.1 20.1 20.1 20.1 20.1 20.1 20.1 20.1 20.1 20.1 20.1 20.1 20.0 20.0 20.0 20.1 20.1 20.1 20.1 20.1 20.1 20.1 20.1 20.1 20.1 20.1 20.1 20.1 20.1 20.1 20.1 20.1 20.1 20.1 20.1 20.1 20.1 20.1 20.0 20.0 20.0 20.0 20.0 20.0 20.0 20.0 20.0 20.0 20.0 20.0 20.0 20.0 20.0 20.0 20.0 20.0 20.0 20.0 20.0 20.0 20.0 20.0 20.0 20.0 20.0 20.0 20.0 20.0 20.0 20.0 20.0 20.0 20.0 20.0 20.0 20.0 20.0 20.0 20.0 20.0 20.0 20.0 20.0 20.0 20.0 20.0 20.0 20.0 20.0 20.0 20.0 20.0 20.0 20.0 20.0 20.0 20.0 20.0 20.0 20.0 20.0 20.0 20.0 20.0 20.0 20.0 20.0 20.0 20.0 20.0 20.0 20.0 20.0 20.0 20.0 20.0 20.0 20.0 20.0 20.1 20.1 20.1 20.2 20.2 20.3 20.3 20.4 20.5 20.6 20.7 20.9 21.0 21.2 21.4 21.6 21.8 22.1 22.5 22.9 23.4 24.3 23.6 20.0 20.0 20.1 20.1 20.1 20.2 20.2 20.3 20.3 20.4 20.4 20.5 20.6 20.7 20.8 21.0 21.1 21.3 21.5 21.7 22.0 22.3 22.6 23.0 23.6 24.2 20.0 20.0 20.1 20.1 20.1 20.1 20.2 20.2 20.3 20.3 20.4 20.5 20.6 20.7 20.8 20.9 21.0 21.2 21.4 21.6 21.8 22.1 22.4 22.7 23.1 23.6 20.0 20.0 20.0 20.1 20.1 20.1 20.2 20.2 20.3 20.3 20.4 20.5 20.5 20.6 20.7 20.9 21.0 21.1 21.3 21.5 21.7 21.9 22.2 22.5 22.8 23.1 20.0 20.0 20.0 20.1 20.1 20.1 20.2 20.2 20.3 20.3 20.4 20.5 20.5 20.6 20.7 20.8 20.9 21.1 21.2 21.4 21.5 21.7 22.0 22.2 22.5 22.7 20.0 20.0 20.0 20.1 20.1 20.1 20.2 20.2 20.3 20.3 20.4 20.4 20.5 20.6 20.7 20.8 20.9 21.0 21.1 21.3 21.4 21.6 21.8 22.0 22.3 22.5 20.0 20.0 20.0 20.1 20.1 20.1 20.2 20.2 20.3 20.3 20.4 20.4 20.5 20.6 20.7 20.7 20.8 20.9 21.0 21.2 21.3 21.5 21.6 21.9 22.2 22.5 20.0 20.0 20.0 20.1 20.1 20.1 20.2 20.2 20.3 20.3 20.4 20.4 20.5 20.5 20.6 20.7 20.8 20.9 21.0 21.0 21.1 21.3 21.5 21.8 22.2 22.7 20.0 20.0 20.0 20.1 20.1 20.1 20.2 20.2 20.3 20.3 20.3 20.4 20.5 20.5 20.6 20.6 20.7 20.8 20.9 20.9 21.0 21.2 21.5 21.9 22.4 23.0 20.0 20.0 20.0 20.1 20.1 20.1 20.2 20.2 20.2 20.3 20.3 20.4 20.4 20.5 20.5 20.6 20.6 20.7 20.8 20.8 20.9 21.0 21.0 21.2 21.7 22.4 20.0 20.0 20.0 20.1 20.1 20.1 20.2 20.2 20.2 20.3 20.3 20.4 20.4 20.4 20.5 20.5 20.6 20.6 20.7 20.7 20.8 20.8 20.6 20.5 20.9 21.5 20.0 20.0 20.0 20.1 20.1 20.1 20.2 20.2 20.2 20.3 20.3 20.3 20.4 20.4 20.4 20.5 20.5 20.6 20.6 20.6 20.7 20.7 20.5 20.5 20.8 21.3 20.0 20.0 20.0 20.1 20.1 20.1 20.2 20.2 20.2 20.2 20.3 20.3 20.3 20.4 20.4 20.4 20.5 20.5 20.5 20.5 20.6 20.6 20.4 20.4 20.7 21.1 20.0 20.0 20.0 20.1 20.1 20.1 20.1 20.2 20.2 20.2 20.3 20.3 20.3 20.3 20.4 20.4 20.4 20.5 20.5 20.5 20.5 20.5 20.4 20.3 20.6 21.0 20.0 20.0 20.0 20.1 20.1 20.1 20.1 20.2 20.2 20.2 20.2 20.3 20.3 20.3 20.3 20.4 20.4 20.4 20.4 20.4 20.4 20.4 20.3 20.2 20.5 20.8 20.0 20.0 20.0 20.1 20.1 20.1 20.1 20.2 20.2 20.2 20.2 20.2 20.3 20.3 20.3 20.3 20.3 20.3 20.4 20.4 20.3 20.3 20.3 20.2 20.3 20.5 20.0 20.0 20.0 20.1 20.1 20.1 20.1 20.2 20.2 20.2 20.2 20.2 20.2 20.3 20.3 20.3 20.3 20.3 20.3 20.3 20.3 20.3 20.3 20.3 20.3 20.3 20.0 20.0 20.0 20.1 20.1 20.1 20.1 20.1 20.2 20.2 20.2 20.2 20.2 20.2 20.2 20.2 20.2 20.2 20.3 20.2 20.2 20.2 20.2 20.2 20.2 20.2 20.0 20.0 20.0 20.1 20.1 20.1 20.1 20.1 20.1 20.2 20.2 20.2 20.2 20.2 20.2 20.2 20.2 20.2 20.2 20.2 20.2 20.2 20.2 20.2 20.2 20.2 20.0 20.0 20.0 20.1 20.1 20.1 20.1 20.1 20.1 20.1 20.1 20.1 20.2 20.2 20.2 20.2 20.2 20.2 20.2 20.2 20.1 20.1 20.1 20.1 20.1 20.2 20.0 20.0 20.0 20.1 20.1 20.1 20.1 20.1 20.1 20.1 20.1 20.1 20.1 20.1 20.1 20.1 20.1 20.1 20.1 20.1 20.1 20.1 20.1 20.1 20.1 20.1 20.0 20.0 20.0 20.1 20.1 20.1 20.1 20.1 20.1 20.1 20.1 20.1 20.1 20.1 20.1 20.1 20.1 20.1 20.1 20.1 20.1 20.1 20.1 20.1 20.1 20.1 20.0 20.0 20.0 20.1 20.1 20.1 20.1 20.1 20.1 20.1 20.1 20.1 20.1 20.1 20.1 20.1 20.1 20.1 20.1 20.1 20.1 20.1 20.1 20.1 20.1 20.1 20.0 20.0 20.0 20.0 20.0 20.0 20.0 20.0 20.0 20.0 20.0 20.0 20.0 20.0 20.0 20.0 20.0 20.0 20.0 20.0 20.0 20.0 20.0 20.0 20.0 20.0 20.0 20.0 20.0 20.0 20.0 20.0 20.0 20.0 20.0 20.0 20.0 20.0 20.0 20.0 20.0 20.0 20.0 20.0 20.0 20.0 20.0 20.0 20.0 20.0 20.0 20.0 20.0 20.0 20.0 20.0 20.0 20.0 20.0 20.0 20.0 20.0 20.0 20.0 20.0 20.0 20.0 20.0 20.0 20.0 20.0 20.0 20.0 20.0 20.0 20.0 20.0 20.0 20.0 20.0 20.1 20.1 20.1 20.2 20.2 20.3 20.4 20.4 20.5 20.6 20.7 20.9 21.0 21.2 21.4 21.6 21.8 22.0 22.3 22.7 23.1 24.1 26.4 25.6 20.0 20.0 20.1 20.1 20.2 20.2 20.3 20.3 20.4 20.4 20.5 20.6 20.7 20.8 20.9 21.1 21.3 21.5 21.7 21.9 22.1 22.4 22.8 23.5 24.2 24.9 20.0 20.0 20.1 20.1 20.1 20.2 20.2 20.3 20.4 20.4 20.5 20.6 20.7 20.8 20.9 21.1 21.2 21.4 21.6 21.8 22.0 22.2 22.5 22.9 23.3 23.8 20.0 20.0 20.1 20.1 20.1 20.2 20.2 20.3 20.3 20.4 20.5 20.6 20.7 20.8 20.9 21.0 21.2 21.3 21.5 21.6 21.8 22.0 22.3 22.6 22.9 23.4 20.0 20.0 20.1 20.1 20.1 20.2 20.2 20.3 20.3 20.4 20.5 20.5 20.6 20.7 20.9 21.0 21.1 21.2 21.4 21.5 21.7 21.9 22.1 22.4 22.7 23.1 20.0 20.0 20.0 20.1 20.1 20.2 20.2 20.3 20.3 20.4 20.5 20.5 20.6 20.7 20.8 20.9 21.0 21.2 21.3 21.4 21.6 21.7 21.9 22.2 22.6 22.9 20.0 20.0 20.0 20.1 20.1 20.2 20.2 20.3 20.3 20.4 20.5 20.5 20.6 20.7 20.8 20.9 21.0 21.1 21.2 21.3 21.4 21.5 21.8 22.2 22.5 22.9 20.0 20.0 20.0 20.1 20.1 20.2 20.2 20.3 20.3 20.4 20.4 20.5 20.6 20.6 20.7 20.8 20.9 21.0 21.1 21.2 21.2 21.4 21.7 22.1 22.4 22.9 20.0 20.0 20.0 20.1 20.1 20.2 20.2 20.3 20.3 20.4 20.4 20.5 20.5 20.6 20.7 20.8 20.8 20.9 21.0 21.0 21.1 21.3 21.7 22.1 22.4 22.9 20.0 20.0 20.1 20.1 20.1 20.2 20.2 20.3 20.3 20.3 20.4 20.4 20.5 20.6 20.6 20.7 20.8 20.8 20.9 20.9 20.9 21.0 21.2 21.3 21.7 22.3 20.0 20.0 20.1 20.1 20.1 20.2 20.2 20.2 20.3 20.3 20.4 20.4 20.5 20.5 20.6 20.6 20.7 20.7 20.8 20.8 20.8 20.8 20.7 20.5 21.0 21.6 20.0 20.0 20.0 20.1 20.1 20.2 20.2 20.2 20.3 20.3 20.4 20.4 20.4 20.5 20.5 20.6 20.6 20.7 20.7 20.7 20.6 20.7 20.6 20.5 20.9 21.4 20.0 20.0 20.0 20.1 20.1 20.2 20.2 20.2 20.3 20.3 20.3 20.4 20.4 20.4 20.5 20.5 20.6 20.6 20.6 20.6 20.6 20.6 20.5 20.4 20.8 21.3 20.0 20.0 20.0 20.1 20.1 20.1 20.2 20.2 20.2 20.3 20.3 20.3 20.4 20.4 20.4 20.5 20.5 20.5 20.5 20.5 20.5 20.5 20.4 20.3 20.7 21.1 20.0 20.0 20.0 20.1 20.1 20.1 20.2 20.2 20.2 20.3 20.3 20.3 20.3 20.4 20.4 20.4 20.4 20.4 20.4 20.4 20.4 20.4 20.4 20.3 20.6 20.8 20.0 20.0 20.0 20.1 20.1 20.1 20.2 20.2 20.2 20.2 20.3 20.3 20.3 20.3 20.4 20.4 20.4 20.4 20.4 20.4 20.3 20.3 20.3 20.3 20.4 20.5 20.0 20.0 20.0 20.1 20.1 20.1 20.2 20.2 20.2 20.2 20.2 20.3 20.3 20.3 20.3 20.3 20.3 20.3 20.3 20.3 20.3 20.3 20.3 20.3 20.3 20.3 20.0 20.0 20.0 20.1 20.1 20.1 20.1 20.2 20.2 20.2 20.2 20.2 20.2 20.3 20.3 20.3 20.3 20.3 20.3 20.3 20.2 20.2 20.2 20.2 20.3 20.3 20.0 20.0 20.0 20.1 20.1 20.1 20.1 20.2 20.2 20.2 20.2 20.2 20.2 20.2 20.2 20.2 20.2 20.2 20.2 20.2 20.2 20.2 20.2 20.2 20.2 20.3 20.0 20.0 20.0 20.1 20.1 20.1 20.1 20.1 20.2 20.2 20.2 20.2 20.2 20.2 20.2 20.2 20.2 20.2 20.2 20.2 20.2 20.2 20.2 20.2 20.2 20.2 20.0 20.0 20.0 20.1 20.1 20.1 20.1 20.1 20.1 20.1 20.1 20.1 20.1 20.1 20.1 20.1 20.1 20.1 20.1 20.1 20.1 20.1 20.1 20.1 20.1 20.2 20.0 20.0 20.1 20.1 20.1 20.1 20.1 20.1 20.1 20.1 20.1 20.1 20.1 20.1 20.1 20.1 20.1 20.1 20.1 20.1 20.1 20.1 20.1 20.1 20.1 20.1 20.0 20.0 20.1 20.1 20.1 20.1 20.1 20.1 20.1 20.1 20.1 20.1 20.1 20.1 20.1 20.1 20.1 20.1 20.1 20.1 20.1 20.1 20.1 20.1 20.1 20.1 20.0 20.0 20.1 20.1 20.1 20.0 20.0 20.0 20.0 20.0 20.0 20.0 20.0 20.0 20.0 20.0 20.0 20.0 20.0 20.0 20.0 20.0 20.0 20.0 20.0 20.1 20.0 20.0 20.0 20.0 20.0 20.0 20.0 20.0 20.0 20.0 20.0 20.0 20.0 20.0 20.0 20.0 20.0 20.0 20.0 20.0 20.0 20.0 20.0 20.0 20.0 20.0 20.0 20.0 20.0 20.0 20.0 20.0 20.0 20.0 20.0 20.0 20.0 20.0 20.0 20.0 20.0 20.0 20.0 20.0 20.0 20.0 20.0 20.0 20.0 20.0 20.0 20.0 20.0 20.0 20.1 20.1 20.2 20.3 20.3 20.4 20.5 20.6 20.6 20.8 20.9 21.0 21.1 21.3 21.5 21.7 22.0 22.2 22.5 22.8 23.3 25.0 29.1 28.3 20.0 20.0 20.1 20.1 20.2 20.3 20.3 20.4 20.5 20.5 20.6 20.7 20.8 20.9 21.1 21.3 21.4 21.6 21.9 22.1 22.3 22.6 22.9 23.7 24.7 26.1 20.0 20.0 20.1 20.1 20.2 20.2 20.3 20.4 20.4 20.5 20.6 20.7 20.8 20.9 21.1 21.2 21.4 21.6 21.7 21.9 22.2 22.4 22.7 23.0 23.5 24.0 20.0 20.0 20.1 20.1 20.2 20.2 20.3 20.3 20.4 20.5 20.6 20.7 20.8 20.9 21.0 21.2 21.3 21.5 21.6 21.8 22.0 22.2 22.4 22.7 23.1 23.6 20.0 20.0 20.1 20.1 20.2 20.2 20.3 20.3 20.4 20.5 20.6 20.7 20.8 20.9 21.0 21.1 21.3 21.4 21.5 21.7 21.9 22.0 22.2 22.6 23.0 23.4 20.0 20.0 20.1 20.1 20.2 20.2 20.3 20.3 20.4 20.5 20.6 20.6 20.7 20.8 20.9 21.1 21.2 21.3 21.4 21.6 21.7 21.8 22.1 22.4 22.8 23.2 20.0 20.0 20.1 20.1 20.2 20.2 20.3 20.3 20.4 20.5 20.5 20.6 20.7 20.8 20.9 21.0 21.1 21.2 21.3 21.4 21.5 21.7 21.9 22.2 22.5 22.9 20.0 20.0 20.1 20.1 20.1 20.2 20.3 20.3 20.4 20.5 20.5 20.6 20.7 20.8 20.9 20.9 21.0 21.1 21.2 21.3 21.4 21.5 21.7 22.0 22.2 22.6 20.0 20.0 20.1 20.1 20.2 20.2 20.3 20.3 20.4 20.4 20.5 20.6 20.6 20.7 20.8 20.9 21.0 21.0 21.1 21.2 21.2 21.3 21.6 21.8 21.9 22.2 20.0 20.0 20.1 20.1 20.2 20.2 20.3 20.3 20.4 20.4 20.5 20.6 20.6 20.7 20.7 20.8 20.9 20.9 21.0 21.0 21.0 21.0 21.2 21.4 21.6 21.8 20.0 20.0 20.1 20.1 20.2 20.2 20.3 20.3 20.4 20.4 20.5 20.5 20.6 20.6 20.7 20.7 20.8 20.8 20.9 20.9 20.8 20.8 21.0 21.1 21.3 21.5 20.0 20.0 20.1 20.1 20.2 20.2 20.2 20.3 20.3 20.4 20.4 20.5 20.5 20.6 20.6 20.7 20.7 20.7 20.7 20.7 20.7 20.7 20.8 20.9 21.1 21.3 20.0 20.0 20.1 20.1 20.1 20.2 20.2 20.3 20.3 20.4 20.4 20.5 20.5 20.5 20.6 20.6 20.6 20.6 20.6 20.6 20.6 20.6 20.7 20.8 20.9 21.2 20.0 20.0 20.1 20.1 20.1 20.2 20.2 20.3 20.3 20.3 20.4 20.4 20.5 20.5 20.5 20.5 20.6 20.6 20.6 20.5 20.5 20.5 20.6 20.7 20.8 21.0 20.0 20.0 20.1 20.1 20.1 20.2 20.2 20.3 20.3 20.3 20.4 20.4 20.4 20.4 20.5 20.5 20.5 20.5 20.5 20.5 20.4 20.5 20.5 20.6 20.7 20.8 20.0 20.0 20.1 20.1 20.1 20.2 20.2 20.2 20.3 20.3 20.3 20.4 20.4 20.4 20.4 20.4 20.4 20.4 20.4 20.4 20.4 20.4 20.4 20.4 20.5 20.6 20.0 20.0 20.1 20.1 20.1 20.2 20.2 20.2 20.2 20.3 20.3 20.3 20.3 20.4 20.4 20.4 20.4 20.4 20.4 20.4 20.3 20.3 20.4 20.4 20.4 20.5 20.0 20.0 20.1 20.1 20.1 20.2 20.2 20.2 20.2 20.3 20.3 20.3 20.3 20.3 20.3 20.3 20.3 20.3 20.3 20.3 20.3 20.3 20.3 20.3 20.4 20.4 20.0 20.0 20.1 20.1 20.1 20.2 20.2 20.2 20.2 20.2 20.2 20.3 20.3 20.3 20.3 20.3 20.3 20.3 20.3 20.2 20.2 20.2 20.3 20.3 20.3 20.4 20.0 20.0 20.1 20.1 20.1 20.1 20.2 20.2 20.2 20.2 20.2 20.2 20.2 20.2 20.2 20.2 20.2 20.2 20.2 20.2 20.2 20.2 20.2 20.2 20.3 20.3 20.0 20.0 20.1 20.1 20.1 20.1 20.2 20.2 20.2 20.2 20.2 20.2 20.2 20.2 20.2 20.2 20.2 20.2 20.2 20.1 20.1 20.1 20.2 20.2 20.2 20.2 20.0 20.0 20.1 20.1 20.1 20.1 20.1 20.1 20.1 20.1 20.1 20.1 20.1 20.1 20.1 20.1 20.1 20.1 20.1 20.1 20.1 20.1 20.1 20.1 20.2 20.2 20.0 20.0 20.1 20.1 20.1 20.1 20.1 20.1 20.1 20.1 20.1 20.1 20.1 20.1 20.1 20.1 20.1 20.1 20.1 20.1 20.1 20.1 20.1 20.1 20.1 20.1 20.0 20.0 20.1 20.1 20.1 20.1 20.1 20.1 20.1 20.1 20.1 20.0 20.1 20.1 20.1 20.1 20.1 20.0 20.0 20.0 20.0 20.0 20.1 20.1 20.1 20.1 20.0 20.0 20.0 20.0 20.0 20.0 20.0 20.0 20.0 20.0 20.0 20.0 20.0 20.0 20.0 20.0 20.0 20.0 20.0 20.0 20.0 20.0 20.0 20.0 20.0 20.0 20.0 20.0 20.0 20.0 20.0 20.0 20.0 20.0 20.0 20.0 20.0 20.0 20.0 20.0 20.0 20.0 20.0 20.0 20.0 20.0 20.0 20.0 20.0 20.0 20.0 20.0 20.0 20.0 20.1 20.2 20.2 20.3 20.4 20.5 20.6 20.7 20.8 20.9 21.0 21.1 21.3 21.4 21.6 21.8 22.1 22.4 22.7 23.0 23.5 25.8 33.2 32.6 20.0 20.0 20.1 20.2 20.2 20.3 20.4 20.5 20.6 20.6 20.7 20.8 20.9 21.1 21.2 21.4 21.5 21.7 22.0 22.2 22.5 22.8 23.1 23.6 24.7 27.2 20.0 20.0 20.1 20.2 20.2 20.3 20.4 20.4 20.5 20.6 20.7 20.8 20.9 21.0 21.2 21.3 21.5 21.6 21.8 22.1 22.3 22.6 22.8 23.1 23.5 24.3 20.0 20.0 20.1 20.1 20.2 20.3 20.3 20.4 20.5 20.6 20.7 20.8 20.9 21.0 21.1 21.3 21.4 21.6 21.7 21.9 22.2 22.4 22.6 22.9 23.3 23.8 20.0 20.0 20.1 20.1 20.2 20.2 20.3 20.4 20.5 20.6 20.7 20.8 20.9 21.0 21.1 21.2 21.4 21.5 21.7 21.8 22.0 22.2 22.4 22.7 23.1 23.6 20.0 20.0 20.1 20.1 20.2 20.2 20.3 20.4 20.5 20.6 20.6 20.7 20.8 20.9 21.1 21.2 21.3 21.4 21.6 21.7 21.9 22.0 22.2 22.5 22.9 23.4 20.0 20.0 20.1 20.1 20.2 20.2 20.3 20.4 20.5 20.5 20.6 20.7 20.8 20.9 21.0 21.1 21.2 21.3 21.5 21.6 21.7 21.8 22.0 22.3 22.7 23.1 20.0 20.0 20.1 20.1 20.2 20.2 20.3 20.4 20.5 20.5 20.6 20.7 20.8 20.9 21.0 21.1 21.2 21.3 21.4 21.4 21.5 21.6 21.8 22.1 22.4 22.8 20.0 20.0 20.1 20.1 20.2 20.2 20.3 20.4 20.5 20.5 20.6 20.7 20.7 20.8 20.9 21.0 21.1 21.2 21.2 21.3 21.3 21.4 21.6 21.8 22.1 22.4 20.0 20.0 20.1 20.1 20.2 20.3 20.3 20.4 20.5 20.5 20.6 20.6 20.7 20.8 20.9 20.9 21.0 21.1 21.1 21.1 21.2 21.2 21.3 21.5 21.7 21.9 20.0 20.0 20.1 20.1 20.2 20.3 20.3 20.4 20.4 20.5 20.6 20.6 20.7 20.7 20.8 20.8 20.9 20.9 21.0 21.0 21.0 21.1 21.1 21.3 21.4 21.5 20.0 20.0 20.1 20.1 20.2 20.2 20.3 20.4 20.4 20.5 20.5 20.6 20.6 20.7 20.7 20.8 20.8 20.8 20.9 20.9 20.9 20.9 21.0 21.1 21.2 21.3 20.0 20.0 20.1 20.1 20.2 20.2 20.3 20.3 20.4 20.4 20.5 20.5 20.6 20.6 20.7 20.7 20.7 20.7 20.8 20.8 20.8 20.8 20.9 20.9 21.0 21.1 20.0 20.0 20.1 20.1 20.2 20.2 20.3 20.3 20.4 20.4 20.5 20.5 20.5 20.6 20.6 20.6 20.6 20.7 20.7 20.7 20.7 20.7 20.8 20.8 20.9 21.0 20.0 20.0 20.1 20.1 20.2 20.2 20.3 20.3 20.4 20.4 20.4 20.5 20.5 20.5 20.5 20.6 20.6 20.6 20.6 20.6 20.6 20.6 20.6 20.7 20.7 20.8 20.0 20.0 20.1 20.1 20.2 20.2 20.3 20.3 20.3 20.4 20.4 20.4 20.4 20.5 20.5 20.5 20.5 20.5 20.5 20.5 20.5 20.5 20.6 20.6 20.6 20.7 20.0 20.0 20.1 20.1 20.2 20.2 20.3 20.3 20.3 20.3 20.4 20.4 20.4 20.4 20.4 20.4 20.4 20.4 20.4 20.4 20.4 20.5 20.5 20.5 20.6 20.6 20.0 20.0 20.1 20.1 20.2 20.2 20.2 20.3 20.3 20.3 20.3 20.3 20.4 20.4 20.4 20.4 20.4 20.4 20.4 20.4 20.4 20.4 20.4 20.5 20.5 20.5 20.0 20.0 20.1 20.1 20.2 20.2 20.2 20.2 20.3 20.3 20.3 20.3 20.3 20.3 20.3 20.3 20.3 20.3 20.3 20.3 20.3 20.3 20.4 20.4 20.4 20.5 20.0 20.0 20.1 20.1 20.2 20.2 20.2 20.2 20.2 20.2 20.3 20.3 20.3 20.3 20.3 20.3 20.3 20.3 20.3 20.2 20.3 20.3 20.3 20.3 20.3 20.4 20.0 20.0 20.1 20.1 20.1 20.2 20.2 20.2 20.2 20.2 20.2 20.2 20.2 20.2 20.2 20.2 20.2 20.2 20.2 20.2 20.2 20.2 20.2 20.2 20.3 20.3 20.0 20.0 20.1 20.1 20.1 20.1 20.2 20.2 20.2 20.2 20.2 20.2 20.2 20.2 20.2 20.1 20.1 20.1 20.1 20.1 20.1 20.1 20.2 20.2 20.2 20.2 20.0 20.0 20.1 20.1 20.1 20.1 20.1 20.1 20.1 20.1 20.1 20.1 20.1 20.1 20.1 20.1 20.1 20.1 20.1 20.1 20.1 20.1 20.1 20.1 20.1 20.2 20.0 20.0 20.1 20.1 20.1 20.1 20.1 20.1 20.1 20.1 20.1 20.1 20.1 20.1 20.1 20.1 20.1 20.1 20.1 20.1 20.1 20.1 20.1 20.1 20.1 20.1 20.0 20.0 20.0 20.0 20.0 20.0 20.0 20.0 20.0 20.0 20.0 20.0 20.0 20.0 20.0 20.0 20.0 20.0 20.0 20.0 20.0 20.0 20.0 20.0 20.0 20.0 20.0 20.0 20.0 20.0 20.0 20.0 20.0 20.0 20.0 20.0 20.0 20.0 20.0 20.0 20.0 20.0 20.0 20.0 20.0 20.0 20.0 20.0 20.0 20.0 20.0 20.0 20.0 20.0 20.1 20.2 20.3 20.3 20.4 20.5 20.6 20.7 20.9 21.0 21.1 21.2 21.4 21.5 21.7 21.9 22.1 22.5 22.8 23.1 23.7 25.8 37.0 41.7 20.0 20.1 20.1 20.2 20.3 20.3 20.4 20.5 20.6 20.7 20.8 20.9 21.0 21.1 21.3 21.4 21.6 21.8 22.0 22.2 22.5 22.8 23.2 23.6 25.9 35.4 20.0 20.0 20.1 20.2 20.2 20.3 20.4 20.5 20.6 20.7 20.8 20.9 21.0 21.1 21.2 21.4 21.5 21.7 21.9 22.1 22.4 22.7 23.0 23.3 24.1 26.5 20.0 20.0 20.1 20.2 20.2 20.3 20.4 20.5 20.5 20.6 20.7 20.8 20.9 21.1 21.2 21.3 21.5 21.6 21.8 22.0 22.2 22.5 22.7 23.0 23.4 24.1 20.0 20.0 20.1 20.2 20.2 20.3 20.4 20.4 20.5 20.6 20.7 20.8 20.9 21.0 21.2 21.3 21.4 21.5 21.7 21.9 22.1 22.3 22.5 22.8 23.2 23.9 20.0 20.0 20.1 20.1 20.2 20.3 20.3 20.4 20.5 20.6 20.7 20.8 20.9 21.0 21.1 21.2 21.4 21.5 21.6 21.8 21.9 22.1 22.3 22.6 23.1 23.7 20.0 20.0 20.1 20.1 20.2 20.3 20.3 20.4 20.5 20.6 20.7 20.8 20.9 21.0 21.1 21.2 21.3 21.4 21.5 21.6 21.8 21.9 22.2 22.5 22.9 23.4 20.0 20.0 20.1 20.1 20.2 20.3 20.3 20.4 20.5 20.6 20.7 20.8 20.9 20.9 21.0 21.1 21.2 21.3 21.4 21.5 21.6 21.8 22.0 22.3 22.7 23.2 20.0 20.0 20.1 20.2 20.2 20.3 20.4 20.4 20.5 20.6 20.7 20.7 20.8 20.9 21.0 21.1 21.1 21.2 21.3 21.4 21.5 21.6 21.8 22.1 22.3 22.7 20.0 20.0 20.1 20.2 20.2 20.3 20.4 20.4 20.5 20.6 20.7 20.7 20.8 20.9 20.9 21.0 21.1 21.1 21.2 21.3 21.4 21.5 21.7 21.9 22.0 22.1 20.0 20.0 20.1 20.2 20.2 20.3 20.4 20.4 20.5 20.6 20.6 20.7 20.7 20.8 20.9 20.9 21.0 21.0 21.1 21.1 21.2 21.3 21.5 21.7 21.8 21.8 20.0 20.0 20.1 20.2 20.2 20.3 20.4 20.4 20.5 20.5 20.6 20.6 20.7 20.7 20.8 20.8 20.9 20.9 21.0 21.0 21.1 21.2 21.3 21.5 21.5 21.5 20.0 20.0 20.1 20.2 20.2 20.3 20.4 20.4 20.5 20.5 20.6 20.6 20.6 20.7 20.7 20.8 20.8 20.8 20.9 20.9 21.0 21.0 21.1 21.2 21.3 21.3 20.0 20.0 20.1 20.2 20.2 20.3 20.3 20.4 20.4 20.5 20.5 20.6 20.6 20.6 20.7 20.7 20.7 20.7 20.8 20.8 20.9 20.9 21.0 21.0 21.1 21.1 20.0 20.0 20.1 20.2 20.2 20.3 20.3 20.4 20.4 20.5 20.5 20.5 20.6 20.6 20.6 20.6 20.6 20.7 20.7 20.7 20.8 20.8 20.9 20.9 20.9 21.0 20.0 20.0 20.1 20.1 20.2 20.3 20.3 20.4 20.4 20.4 20.5 20.5 20.5 20.5 20.5 20.6 20.6 20.6 20.6 20.6 20.7 20.7 20.7 20.8 20.8 20.9 20.0 20.0 20.1 20.1 20.2 20.3 20.3 20.3 20.4 20.4 20.4 20.4 20.5 20.5 20.5 20.5 20.5 20.5 20.5 20.6 20.6 20.6 20.6 20.7 20.7 20.8 20.0 20.0 20.1 20.1 20.2 20.2 20.3 20.3 20.3 20.4 20.4 20.4 20.4 20.4 20.4 20.4 20.5 20.5 20.5 20.5 20.5 20.5 20.5 20.6 20.6 20.7 20.0 20.0 20.1 20.1 20.2 20.2 20.3 20.3 20.3 20.3 20.3 20.4 20.4 20.4 20.4 20.4 20.4 20.4 20.4 20.4 20.4 20.4 20.5 20.5 20.5 20.6 20.0 20.0 20.1 20.1 20.2 20.2 20.2 20.3 20.3 20.3 20.3 20.3 20.3 20.3 20.3 20.3 20.3 20.3 20.3 20.3 20.3 20.3 20.4 20.4 20.4 20.5 20.0 20.0