<?xml version="1.0"?>
<VTKFile type="ImageData" version="1.0" byte_order="LittleEndian" header_type="UInt64">
<ImageData WholeExtent="25 50 0 25 0 15"
 Origin="15.0000 0.0000 0.0000" Spacing="0.6000 0.6000 0.6000">
<Piece Extent="25 50 0 25 0 15">
<PointData>
<DataArray Name="TEMPERATURE" NumberOfComponents="1" type="Float32" format="ascii">
20.0 20.0 20.0 20.1 20.1 20.1 20.1 20.1 20.1 20.1 20.1 20.0 20.0 20.0 20.0 20.0 20.0 20.0 20.0 20.0 20.0 20.0 20.0 20.0 20.0 20.0 20.1 20.1 20.1 20.1 20.1 20.1 20.1 20.1 20.1 20.1 20.1 20.1 20.1 20.1 20.1 20.1 20.1 20.1 20.1 20.1 20.1 20.1 20.0 20.0 20.0 20.0 20.1 20.1 20.2 20.2 20.2 20.2 20.2 20.2 20.2 20.2 20.2 20.2 20.2 20.2 20.2 20.1 20.1 20.1 20.1 20.1 20.1 20.1 20.1 20.1 20.1 20.0 20.2 20.2 20.3 20.3 20.3 20.3 20.3 20.3 20.3 20.3 20.3 20.3 20.3 20.3 20.2 20.2 20.2 20.2 20.2 20.2 20.2 20.2 20.2 20.1 20.1 20.0 20.3 20.3 20.4 20.4 20.4 20.4 20.5 20.5 20.5 20.5 20.5 20.4 20.4 20.4 20.3 20.3 20.3 20.3 20.3 20.3 20.3 20.3 20.2 20.1 20.1 20.0 20.4 20.4 20.5 20.5 20.5 20.5 20.6 20.6 20.6 20.6 20.6 20.6 20.5 20.4 20.4 20.4 20.4 20.4 20.4 20.4 20.3 20.3 20.2 20.1 20.1 20.0 20.5 20.5 20.6 20.6 20.6 20.7 20.7 20.8 20.7 20.7 20.7 20.7 20.6 20.5 20.5 20.5 20.5 20.5 20.5 20.4 20.4 20.3 20.2 20.1 20.1 20.0 20.6 20.6 20.7 20.7 20.8 20.8 20.9 20.9 20.9 20.9 20.9 20.8 20.7 20.7 20.6 20.6 20.6 20.6 20.6 20.5 20.4 20.3 20.2 20.2 20.1 20.0 20.7 20.8 20.8 20.9 21.0 21.0 21.0 21.1 21.1 21.1 21.0 20.9 20.8 20.8 20.8 20.7 20.7 20.7 20.7 20.5 20.4 20.3 20.2 20.2 20.1 20.0 20.9 20.9 21.0 21.1 21.2 21.2 21.3 21.3 21.3 21.3 21.2 21.1 21.0 20.9 20.9 20.9 20.9 20.8 20.7 20.5 20.4 20.4 20.3 20.2 20.1 20.0 21.0 21.1 21.1 21.3 21.4 21.5 21.5 21.5 21.6 21.6 21.4 21.2 21.2 21.1 21.1 21.1 21.0 20.9 20.7 20.6 20.5 20.4 20.3 20.2 20.1 20.1 21.2 21.2 21.4 21.5 21.6 21.7 21.8 21.8 21.8 21.8 21.6 21.4 21.4 21.3 21.3 21.2 21.1 20.9 20.7 20.6 20.5 20.4 20.3 20.2 20.1 20.1 21.3 21.4 21.6 21.8 22.0 22.1 22.1 22.1 22.1 22.0 21.8 21.6 21.6 21.6 21.5 21.3 21.1 20.9 20.8 20.7 20.6 20.4 20.3 20.2 20.1 20.1 21.6 21.7 21.9 22.2 22.4 22.5 22.6 22.5 22.4 22.3 22.1 21.9 21.9 21.8 21.6 21.3 21.1 21.0 20.9 20.7 20.6 20.5 20.4 20.2 20.1 20.1 21.8 22.0 22.2 22.5 22.8 23.0 23.1 23.1 22.9 22.7 22.4 22.3 22.2 21.9 21.7 21.4 21.2 21.1 20.9 20.8 20.6 20.5 20.4 20.2 20.1 20.1 22.2 22.3 22.6 22.9 23.2 23.6 23.8 23.8 23.6 23.2 22.9 22.7 22.4 22.0 21.8 21.5 21.3 21.1 21.0 20.8 20.7 20.5 20.4 20.2 20.1 20.1 22.5 22.7 23.0 23.4 23.8 24.3 24.7 24.6 24.2 23.7 23.3 23.0 22.6 22.2 21.9 21.6 21.4 21.2 21.0 20.9 20.7 20.5 20.4 20.3 20.1 20.1 22.9 23.2 23.6 24.1 24.6 25.2 25.6 25.5 25.0 24.4 23.8 23.2 22.8 22.4 22.1 21.8 21.5 21.3 21.1 20.9 20.8 20.6 20.4 20.3 20.2 20.1 23.4 23.8 24.3 25.0 25.8 26.5 27.1 26.9 26.1 25.1 24.3 23.6 23.2 22.9 22.5 22.1 21.8 21.5 21.3 21.1 20.9 20.7 20.5 20.3 20.2 20.1 24.1 24.6 25.4 27.0 29.6 31.1 30.5 29.0 27.5 26.3 25.3 24.5 23.8 23.3 22.9 22.4 21.9 21.6 21.3 21.1 20.9 20.7 20.5 20.3 20.2 20.1 25.1 25.9 28.0 31.6 33.9 34.9 33.1 31.2 30.4 28.6 26.5 25.2 24.3 23.5 22.9 22.4 21.9 21.5 21.3 21.1 20.9 20.7 20.5 20.3 20.2 20.1 25.9 27.1 29.5 34.2 37.1 20.0 20.0 37.5 35.6 31.1 27.3 25.4 24.4 23.5 22.9 22.4 21.9 21.6 21.3 21.1 20.9 20.7 20.5 20.4 20.2 20.1 26.0 27.5 29.3 34.4 38.4 20.0 20.0 43.6 38.2 30.4 27.0 25.3 24.2 23.5 22.8 22.4 22.0 21.6 21.3 21.1 21.0 20.8 20.6 20.4 20.2 20.1 25.4 27.1 29.5 33.3 35.6 37.1 39.0 40.3 35.0 27.8 26.0 24.7 23.8 23.2 22.7 22.3 22.0 21.7 21.4 21.2 21.0 20.8 20.6 20.4 20.2 20.1 24.6 25.9 28.0 29.7 31.0 32.9 34.2 33.2 29.4 26.2 25.1 24.1 23.3 22.9 22.4 22.1 21.8 21.6 21.3 21.1 20.9 20.7 20.5 20.4 20.2 20.1 23.1 24.7 25.9 26.8 27.3 28.0 28.5 27.5 25.7 24.9 24.3 23.6 23.0 22.6 22.2 21.9 21.6 21.4 21.2 21.0 20.8 20.6 20.5 20.3 20.2 20.1 20.0 20.0 20.0 20.1 20.1 20.0 20.0 20.1 20.1 20.1 20.0 20.0 20.0 20.0 20.0 20.0 20.0 20.0 20.0 20.0 20.0 20.0 20.0 20.0 20.0 20.0 20.1 20.1 20.1 20.1 20.1 20.1 20.1 20.1 20.1 20.1 20.1 20.1 20.1 20.1 20.1 20.1 20.1 20.1 20.1 20.1 20.1 20.1 20.0 20.0 20.0 20.0 20.1 20.1 20.2 20.2 20.2 20.2 20.2 20.2 20.2 20.2 20.2 20.2 20.2 20.2 20.1 20.1 20.1 20.1 20.1 20.1 20.1 20.1 20.1 20.1 20.0 20.0 20.2 20.2 20.2 20.3 20.3 20.3 20.3 20.3 20.3 20.3 20.3 20.3 20.3 20.2 20.2 20.2 20.2 20.2 20.2 20.2 20.2 20.2 20.2 20.1 20.0 20.0 20.3 20.3 20.3 20.4 20.4 20.4 20.5 20.5 20.5 20.5 20.4 20.4 20.4 20.3 20.3 20.3 20.3 20.3 20.3 20.3 20.3 20.2 20.2 20.1 20.1 20.0 20.4 20.4 20.4 20.5 20.5 20.5 20.6 20.6 20.6 20.6 20.6 20.5 20.5 20.4 20.4 20.4 20.4 20.3 20.3 20.3 20.3 20.3 20.2 20.1 20.1 20.0 20.5 20.5 20.5 20.6 20.6 20.7 20.7 20.8 20.7 20.7 20.7 20.6 20.6 20.5 20.5 20.5 20.5 20.4 20.5 20.4 20.4 20.3 20.2 20.1 20.1 20.0 20.6 20.6 20.7 20.7 20.8 20.8 20.9 20.9 20.9 20.9 20.8 20.7 20.7 20.6 20.6 20.6 20.6 20.6 20.6 20.5 20.4 20.3 20.2 20.1 20.1 20.0 20.7 20.7 20.8 20.9 20.9 21.0 21.0 21.1 21.1 21.1 21.0 20.8 20.8 20.8 20.7 20.7 20.7 20.7 20.6 20.5 20.4 20.3 20.2 20.2 20.1 20.0 20.8 20.9 21.0 21.1 21.2 21.2 21.3 21.3 21.3 21.3 21.2 21.0 20.9 20.9 20.9 20.9 20.9 20.8 20.7 20.5 20.4 20.3 20.3 20.2 20.1 20.0 21.0 21.0 21.1 21.2 21.4 21.5 21.5 21.6 21.6 21.5 21.4 21.2 21.1 21.1 21.1 21.1 21.0 20.8 20.7 20.5 20.4 20.4 20.3 20.2 20.1 20.0 21.1 21.2 21.4 21.5 21.6 21.8 21.8 21.9 21.8 21.7 21.6 21.4 21.3 21.3 21.3 21.2 21.0 20.8 20.7 20.6 20.5 20.4 20.3 20.2 20.1 20.0 21.3 21.5 21.6 21.8 22.0 22.1 22.2 22.2 22.1 22.0 21.8 21.6 21.6 21.6 21.5 21.2 21.0 20.9 20.7 20.6 20.5 20.4 20.3 20.2 20.1 20.1 21.6 21.7 21.9 22.2 22.4 22.6 22.7 22.6 22.5 22.3 22.1 22.0 21.9 21.8 21.6 21.3 21.1 21.0 20.8 20.7 20.6 20.4 20.3 20.2 20.1 20.1 21.9 22.0 22.3 22.5 22.9 23.2 23.3 23.2 23.0 22.7 22.5 22.4 22.2 21.9 21.6 21.4 21.2 21.0 20.9 20.7 20.6 20.5 20.4 20.2 20.1 20.1 22.2 22.4 22.7 23.0 23.4 23.8 24.1 24.0 23.6 23.2 22.9 22.8 22.4 22.1 21.8 21.5 21.3 21.1 21.0 20.8 20.6 20.5 20.4 20.2 20.1 20.1 22.6 22.8 23.1 23.6 24.0 24.6 24.9 24.8 24.3 23.8 23.4 23.1 22.6 22.2 21.9 21.6 21.4 21.2 21.0 20.8 20.7 20.5 20.4 20.3 20.1 20.1 23.0 23.3 23.8 24.4 25.1 25.7 26.0 25.8 25.2 24.6 23.9 23.3 22.9 22.5 22.1 21.8 21.6 21.3 21.1 20.9 20.8 20.6 20.4 20.3 20.1 20.1 23.5 24.0 24.6 25.7 26.8 27.8 28.1 27.4 26.3 25.3 24.4 23.7 23.2 22.9 22.5 22.1 21.8 21.5 21.3 21.1 20.9 20.7 20.5 20.3 20.2 20.1 24.2 24.9 25.9 29.1 36.4 40.2 35.5 30.2 27.7 26.4 25.3 24.5 23.8 23.3 22.9 22.4 22.0 21.6 21.4 21.1 20.9 20.7 20.5 20.3 20.2 20.1 25.2 26.4 30.2 37.7 74.9 129.6 118.7 61.5 32.2 28.4 26.6 25.4 24.4 23.6 23.1 22.5 22.0 21.6 21.4 21.1 20.9 20.7 20.5 20.3 20.2 20.1 26.1 27.6 32.0 43.5 147.7 379.4 364.9 140.2 45.1 32.0 27.7 26.0 24.8 23.8 23.2 22.6 22.0 21.6 21.4 21.1 20.9 20.7 20.5 20.3 20.2 20.1 26.5 28.2 30.6 47.2 164.0 424.8 393.7 143.8 50.2 33.0 27.7 25.9 24.7 23.8 23.1 22.5 22.1 21.7 21.3 21.1 20.9 20.7 20.6 20.4 20.2 20.1 26.0 27.8 30.3 43.3 87.6 157.8 141.4 70.7 42.1 30.9 26.4 25.1 24.1 23.4 22.8 22.4 22.0 21.7 21.4 21.1 20.9 20.7 20.5 20.3 20.2 20.1 24.9 26.2 28.3 31.9 36.0 39.2 39.0 36.6 32.9 27.8 25.3 24.2 23.5 22.9 22.5 22.1 21.8 21.6 21.3 21.1 20.9 20.7 20.5 20.3 20.2 20.1 23.2 24.9 26.1 27.2 28.0 29.1 29.7 28.8 26.6 25.1 24.4 23.7 23.1 22.6 22.2 21.9 21.6 21.4 21.2 21.0 20.8 20.6 20.5 20.3 20.1 20.1 20.0 20.0 20.0 20.1 20.1 20.1 20.1 20.0 20.0 20.0 20.0 20.0 20.0 20.0 20.0 20.0 20.0 20.0 20.0 20.0 20.0 20.0 20.0 20.0 20.0 20.0 20.1 20.1 20.1 20.1 20.1 20.1 20.1 20.1 20.1 20.1 20.1 20.1 20.1 20.1 20.1 20.1 20.1 20.1 20.1 20.0 20.0 20.0 20.0 20.0 20.0 20.0 20.1 20.1 20.2 20.2 20.2 20.2 20.2 20.2 20.2 20.2 20.2 20.2 20.1 20.1 20.1 20.1 20.1 20.1 20.1 20.1 20.1 20.1 20.1 20.1 20.0 20.0 20.2 20.2 20.2 20.3 20.3 20.3 20.3 20.3 20.3 20.3 20.3 20.2 20.2 20.2 20.2 20.2 20.2 20.2 20.2 20.1 20.1 20.1 20.1 20.1 20.0 20.0 20.3 20.3 20.3 20.3 20.4 20.4 20.4 20.4 20.4 20.4 20.4 20.3 20.3 20.3 20.3 20.3 20.2 20.2 20.2 20.2 20.2 20.2 20.2 20.1 20.0 20.0 20.4 20.4 20.4 20.4 20.5 20.5 20.6 20.6 20.6 20.6 20.5 20.4 20.4 20.4 20.4 20.3 20.3 20.3 20.3 20.3 20.3 20.2 20.2 20.1 20.0 20.0 20.4 20.5 20.5 20.6 20.6 20.7 20.7 20.7 20.7 20.7 20.6 20.5 20.5 20.5 20.4 20.4 20.4 20.4 20.4 20.4 20.4 20.3 20.2 20.1 20.1 20.0 20.6 20.6 20.6 20.7 20.8 20.8 20.9 20.9 20.9 20.8 20.7 20.6 20.6 20.6 20.5 20.5 20.5 20.6 20.6 20.5 20.4 20.3 20.2 20.1 20.1 20.0 20.7 20.7 20.8 20.9 20.9 21.0 21.1 21.1 21.1 21.0 20.9 20.8 20.7 20.7 20.7 20.7 20.7 20.7 20.6 20.5 20.4 20.3 20.2 20.1 20.1 20.0 20.8 20.9 21.0 21.1 21.2 21.2 21.3 21.3 21.3 21.2 21.0 20.9 20.9 20.8 20.8 20.9 20.9 20.7 20.6 20.5 20.4 20.3 20.2 20.1 20.1 20.0 20.9 21.0 21.2 21.3 21.4 21.5 21.5 21.6 21.5 21.4 21.2 21.1 21.1 21.0 21.1 21.1 20.9 20.7 20.6 20.5 20.4 20.3 20.2 20.2 20.1 20.0 21.1 21.2 21.4 21.6 21.7 21.8 21.9 21.9 21.8 21.6 21.5 21.4 21.3 21.3 21.3 21.1 20.9 20.7 20.6 20.5 20.4 20.3 20.3 20.2 20.1 20.0 21.3 21.5 21.6 21.9 22.1 22.2 22.3 22.3 22.1 21.9 21.7 21.7 21.6 21.6 21.4 21.2 20.9 20.8 20.7 20.6 20.5 20.4 20.3 20.2 20.1 20.0 21.6 21.8 22.0 22.2 22.5 22.8 22.8 22.8 22.5 22.3 22.1 22.0 22.0 21.8 21.5 21.2 21.0 20.9 20.8 20.6 20.5 20.4 20.3 20.2 20.1 20.0 21.9 22.1 22.3 22.7 23.1 23.5 23.7 23.5 23.1 22.8 22.6 22.5 22.3 21.9 21.6 21.3 21.2 21.0 20.8 20.7 20.6 20.4 20.3 20.2 20.1 20.0 22.3 22.5 22.8 23.2 23.7 24.2 24.5 24.3 23.7 23.4 23.1 22.8 22.5 22.1 21.7 21.5 21.3 21.1 20.9 20.7 20.6 20.5 20.3 20.2 20.1 20.0 22.7 23.0 23.4 24.0 24.6 25.3 25.7 25.3 24.6 24.1 23.7 23.2 22.7 22.3 21.9 21.6 21.4 21.2 21.0 20.8 20.6 20.5 20.4 20.2 20.1 20.1 23.3 23.7 24.3 25.7 26.8 27.4 28.1 27.1 25.6 24.9 24.2 23.6 23.0 22.5 22.1 21.8 21.6 21.3 21.1 20.9 20.7 20.6 20.4 20.2 20.1 20.1 23.9 24.6 25.7 28.6 31.2 32.4 34.3 32.0 27.4 25.7 24.8 24.0 23.4 22.9 22.5 22.2 21.9 21.6 21.3 21.0 20.8 20.6 20.4 20.3 20.1 20.1 24.6 26.2 28.5 39.4 57.3 58.3 48.0 38.7 30.0 26.8 25.6 24.6 23.9 23.4 22.9 22.5 22.1 21.7 21.4 21.1 20.9 20.7 20.5 20.3 20.1 20.1 25.8 28.1 34.8 63.5 137.4 169.6 144.1 99.6 46.4 29.0 27.0 25.8 24.7 23.9 23.3 22.7 22.2 21.8 21.5 21.2 20.9 20.7 20.5 20.3 20.1 20.1 27.0 29.8 37.9 79.3 233.4 351.1 333.9 229.9 91.0 34.8 28.7 27.0 25.5 24.3 23.6 22.8 22.2 21.8 21.5 21.2 20.9 20.7 20.5 20.3 20.1 20.1 27.5 30.4 36.3 84.8 258.8 406.3 371.2 232.4 97.2 39.1 29.2 27.0 25.6 24.4 23.5 22.7 22.2 21.8 21.4 21.1 20.9 20.7 20.5 20.3 20.2 20.1 26.7 28.8 33.9 73.6 165.5 226.6 185.2 109.9 63.5 37.6 27.8 25.9 24.8 23.9 23.1 22.5 22.1 21.7 21.4 21.1 20.9 20.7 20.5 20.3 20.2 20.1 25.3 26.6 29.8 44.4 60.0 59.7 49.8 45.8 41.8 31.3 26.0 24.7 23.9 23.2 22.7 22.2 21.9 21.6 21.3 21.1 20.9 20.6 20.5 20.3 20.1 20.1 23.4 25.3 26.8 29.0 30.8 32.1 32.3 31.0 28.4 25.8 24.7 24.0 23.3 22.8 22.3 21.9 21.6 21.4 21.1 20.9 20.7 20.6 20.4 20.3 20.1 20.1 20.0 20.0 20.0 20.0 20.1 20.1 20.1 20.1 20.1 20.0 20.0 20.0 20.0 20.0 20.0 20.0 20.0 20.0 20.0 20.0 20.0 20.0 20.0 20.0 20.0 20.0 20.1 20.1 20.1 20.1 20.1 20.1 20.1 20.1 20.1 20.1 20.1 20.1 20.1 20.1 20.1 20.1 20.1 20.0 20.0 20.0 20.0 20.0 20.0 20.0 20.0 20.0 20.1 20.1 20.2 20.2 20.2 20.2 20.2 20.2 20.2 20.2 20.2 20.2 20.1 20.1 20.1 20.1 20.1 20.1 20.1 20.1 20.1 20.1 20.1 20.1 20.0 20.0 20.2 20.2 20.2 20.3 20.3 20.3 20.3 20.3 20.3 20.3 20.3 20.2 20.2 20.2 20.2 20.2 20.2 20.2 20.1 20.1 20.1 20.1 20.1 20.1 20.0 20.0 20.3 20.3 20.3 20.4 20.4 20.4 20.4 20.5 20.4 20.4 20.4 20.3 20.3 20.3 20.3 20.3 20.2 20.2 20.2 20.2 20.2 20.2 20.1 20.1 20.0 20.0 20.4 20.4 20.4 20.5 20.5 20.6 20.6 20.6 20.6 20.5 20.5 20.4 20.4 20.4 20.3 20.3 20.3 20.3 20.3 20.3 20.3 20.2 20.1 20.1 20.0 20.0 20.5 20.5 20.5 20.6 20.7 20.7 20.7 20.7 20.7 20.7 20.6 20.5 20.5 20.5 20.4 20.4 20.4 20.4 20.4 20.4 20.3 20.2 20.1 20.1 20.0 20.0 20.6 20.6 20.7 20.8 20.8 20.9 20.9 20.9 20.9 20.8 20.7 20.6 20.6 20.6 20.5 20.5 20.5 20.6 20.5 20.4 20.3 20.2 20.2 20.1 20.0 20.0 20.7 20.7 20.8 20.9 21.0 21.1 21.1 21.1 21.1 21.0 20.8 20.8 20.7 20.7 20.7 20.7 20.7 20.7 20.6 20.4 20.3 20.2 20.2 20.1 20.1 20.0 20.8 20.9 21.0 21.1 21.3 21.3 21.3 21.3 21.3 21.1 21.0 20.9 20.9 20.9 20.9 20.9 20.9 20.7 20.6 20.4 20.3 20.3 20.2 20.1 20.1 20.0 21.0 21.1 21.2 21.4 21.5 21.6 21.6 21.6 21.5 21.3 21.2 21.1 21.1 21.1 21.1 21.1 20.9 20.7 20.6 20.5 20.4 20.3 20.2 20.1 20.1 20.0 21.2 21.3 21.5 21.7 21.8 21.9 21.9 21.9 21.8 21.6 21.4 21.4 21.3 21.3 21.3 21.1 20.9 20.7 20.6 20.5 20.4 20.3 20.2 20.2 20.1 20.0 21.4 21.6 21.7 22.0 22.2 22.3 22.4 22.4 22.2 21.9 21.7 21.7 21.7 21.6 21.4 21.2 20.9 20.8 20.7 20.5 20.4 20.3 20.3 20.2 20.1 20.0 21.6 21.8 22.1 22.3 22.6 22.8 23.0 22.9 22.6 22.3 22.2 22.1 22.0 21.8 21.5 21.2 21.0 20.9 20.7 20.6 20.5 20.4 20.3 20.2 20.1 20.0 22.0 22.2 22.5 22.8 23.2 23.5 23.8 23.6 23.1 22.8 22.7 22.6 22.3 21.9 21.6 21.3 21.2 21.0 20.8 20.7 20.5 20.4 20.3 20.2 20.1 20.0 22.4 22.7 23.1 23.5 24.0 24.4 24.7 24.5 23.8 23.5 23.3 23.0 22.5 22.1 21.8 21.5 21.3 21.1 20.9 20.8 20.6 20.5 20.3 20.2 20.1 20.0 22.9 23.4 24.6 25.2 25.7 26.6 26.6 25.8 24.9 24.4 23.9 23.3 22.8 22.3 22.0 21.7 21.4 21.2 21.0 20.8 20.6 20.5 20.4 20.2 20.1 20.0 23.5 24.4 28.1 29.8 28.6 29.9 30.7 28.7 26.2 25.3 24.5 23.8 23.2 22.6 22.2 21.9 21.6 21.3 21.1 20.9 20.7 20.5 20.4 20.2 20.1 20.1 24.5 26.9 33.4 36.8 35.1 36.4 39.6 35.5 28.5 26.4 25.3 24.3 23.5 23.0 22.5 22.1 21.8 21.5 21.3 21.0 20.8 20.6 20.4 20.3 20.1 20.1 27.2 34.6 43.9 56.9 72.6 67.9 56.4 49.4 36.3 28.7 26.2 24.9 24.1 23.5 22.9 22.5 22.1 21.7 21.4 21.1 20.9 20.7 20.5 20.3 20.1 20.1 32.0 44.0 65.0 115.8 184.0 167.8 129.7 113.8 64.0 33.8 27.9 26.2 25.0 24.1 23.4 22.8 22.3 21.9 21.6 21.2 21.0 20.7 20.5 20.3 20.1 20.1 34.8 50.2 84.5 171.7 300.0 325.7 298.0 252.2 125.4 44.8 31.6 27.7 26.0 24.7 23.8 23.0 22.4 22.0 21.6 21.3 21.0 20.7 20.5 20.3 20.1 20.1 32.9 46.6 80.4 178.6 330.7 385.2 352.6 288.5 155.5 59.2 35.0 27.9 26.2 24.9 23.8 23.0 22.4 22.0 21.6 21.2 21.0 20.7 20.5 20.3 20.2 20.1 28.9 34.5 57.4 139.8 244.2 251.3 199.1 174.2 121.2 55.9 32.3 26.6 25.4 24.4 23.4 22.7 22.2 21.9 21.5 21.2 20.9 20.7 20.5 20.3 20.2 20.1 25.9 27.5 36.6 73.5 105.4 93.2 69.6 75.4 67.3 36.8 27.2 25.3 24.3 23.6 22.9 22.4 22.0 21.7 21.4 21.1 20.9 20.7 20.5 20.3 20.2 20.1 23.6 25.7 27.5 33.9 38.0 37.0 36.6 36.6 32.6 26.9 25.3 24.4 23.6 23.0 22.5 22.1 21.7 21.4 21.2 21.0 20.8 20.6 20.4 20.3 20.1 20.1 20.0 20.1 20.1 20.0 20.0 20.0 20.1 20.1 20.1 20.1 20.0 20.0 20.0 20.0 20.0 20.0 20.0 20.0 20.0 20.0 20.0 20.0 20.0 20.0 20.0 20.0 20.1 20.1 20.1 20.1 20.1 20.1 20.1 20.1 20.1 20.1 20.1 20.1 20.1 20.1 20.1 20.1 20.1 20.1 20.1 20.0 20.0 20.0 20.0 20.0 20.0 20.0 20.1 20.2 20.2 20.2 20.2 20.2 20.2 20.2 20.2 20.2 20.2 20.2 20.1 20.1 20.1 20.1 20.1 20.1 20.1 20.1 20.1 20.1 20.1 20.1 20.0 20.0 20.2 20.2 20.3 20.3 20.3 20.3 20.3 20.3 20.3 20.3 20.3 20.2 20.2 20.2 20.2 20.2 20.2 20.2 20.2 20.2 20.1 20.1 20.1 20.1 20.0 20.0 20.3 20.3 20.4 20.4 20.5 20.4 20.4 20.5 20.5 20.4 20.4 20.3 20.3 20.3 20.3 20.3 20.3 20.3 20.2 20.2 20.2 20.2 20.1 20.1 20.0 20.0 20.4 20.4 20.5 20.6 20.6 20.6 20.6 20.6 20.6 20.6 20.5 20.4 20.4 20.4 20.4 20.4 20.4 20.3 20.3 20.3 20.3 20.2 20.2 20.1 20.0 20.0 20.5 20.5 20.6 20.7 20.7 20.7 20.8 20.8 20.7 20.7 20.6 20.6 20.5 20.5 20.5 20.5 20.5 20.4 20.4 20.4 20.3 20.3 20.2 20.1 20.0 20.0 20.6 20.7 20.8 20.8 20.9 20.9 20.9 20.9 20.9 20.9 20.8 20.7 20.7 20.6 20.6 20.6 20.6 20.6 20.5 20.5 20.4 20.3 20.2 20.1 20.1 20.0 20.8 20.8 20.9 21.0 21.1 21.1 21.1 21.1 21.1 21.0 20.9 20.8 20.8 20.8 20.8 20.7 20.7 20.7 20.6 20.5 20.4 20.3 20.2 20.1 20.1 20.0 20.9 21.0 21.1 21.2 21.3 21.3 21.3 21.4 21.3 21.2 21.1 21.0 21.0 21.0 20.9 20.9 20.9 20.7 20.6 20.5 20.4 20.3 20.2 20.1 20.1 20.0 21.1 21.2 21.3 21.5 21.6 21.6 21.6 21.6 21.6 21.4 21.3 21.2 21.2 21.2 21.1 21.1 20.9 20.8 20.6 20.5 20.4 20.3 20.2 20.2 20.1 20.0 21.3 21.4 21.6 21.7 21.8 21.9 22.0 22.0 21.9 21.7 21.5 21.4 21.4 21.4 21.3 21.2 21.0 20.8 20.7 20.6 20.5 20.4 20.3 20.2 20.1 20.0 21.5 21.6 21.9 22.0 22.2 22.3 22.4 22.4 22.3 22.0 21.8 21.7 21.7 21.6 21.5 21.2 21.0 20.9 20.7 20.6 20.5 20.4 20.3 20.2 20.1 20.0 21.7 21.9 22.2 22.4 22.6 22.8 23.0 23.0 22.7 22.4 22.3 22.2 22.0 21.8 21.6 21.3 21.1 21.0 20.8 20.7 20.6 20.4 20.3 20.2 20.1 20.0 22.1 22.3 22.6 22.8 23.1 23.4 23.6 23.6 23.2 22.9 22.8 22.6 22.3 22.0 21.7 21.4 21.3 21.1 20.9 20.8 20.6 20.5 20.3 20.2 20.1 20.0 22.5 22.8 23.2 23.5 24.0 24.3 24.6 24.5 24.0 23.6 23.4 23.0 22.6 22.2 21.9 21.6 21.4 21.2 21.0 20.8 20.7 20.5 20.4 20.2 20.1 20.0 23.1 24.8 26.4 25.9 26.1 27.1 26.7 25.9 25.0 24.5 24.0 23.5 22.9 22.4 22.1 21.8 21.6 21.3 21.1 20.9 20.7 20.5 20.4 20.2 20.1 20.1 24.4 30.7 36.6 32.9 27.9 29.3 31.1 28.9 26.4 25.5 24.7 23.9 23.3 22.8 22.4 22.0 21.7 21.4 21.2 21.0 20.8 20.6 20.4 20.3 20.1 20.1 30.3 43.2 52.5 45.4 32.1 32.6 38.0 34.3 29.0 26.8 25.5 24.5 23.7 23.1 22.6 22.2 21.9 21.6 21.3 21.1 20.9 20.7 20.5 20.3 20.1 20.1 37.5 60.5 74.5 71.8 58.8 51.7 53.6 50.8 40.4 30.0 26.4 25.2 24.2 23.5 23.0 22.5 22.1 21.8 21.5 21.2 21.0 20.7 20.5 20.3 20.2 20.1 42.2 79.2 123.0 162.6 150.3 118.4 119.5 101.6 64.6 37.7 28.4 26.4 25.2 24.2 23.4 22.9 22.4 22.0 21.6 21.3 21.0 20.7 20.5 20.3 20.1 20.1 43.2 88.5 172.9 265.2 250.2 229.6 267.0 210.0 116.5 59.2 33.7 28.0 26.2 24.8 23.9 23.2 22.6 22.1 21.7 21.3 21.0 20.7 20.5 20.3 20.1 20.1 37.6 72.2 161.6 277.6 273.6 271.9 329.6 283.9 189.0 101.5 46.5 28.4 26.4 25.1 24.1 23.3 22.6 22.1 21.7 21.3 21.0 20.7 20.5 20.3 20.2 20.1 30.9 44.7 95.5 196.3 228.3 204.9 207.3 217.6 180.4 95.0 44.6 27.2 25.5 24.6 23.7 23.0 22.4 22.0 21.6 21.3 21.0 20.8 20.5 20.3 20.2 20.1 26.5 29.8 42.5 88.4 121.1 101.2 82.9 100.7 89.0 45.7 30.0 25.7 24.5 23.8 23.1 22.6 22.2 21.8 21.5 21.2 20.9 20.7 20.5 20.3 20.2 20.1 23.7 26.1 28.1 36.3 41.1 38.5 40.6 41.4 34.3 27.5 25.7 24.6 23.8 23.3 22.7 22.3 21.9 21.6 21.3 21.1 20.8 20.6 20.5 20.3 20.1 20.1 20.0 20.1 20.1 20.1 20.1 20.0 20.0 20.1 20.1 20.1 20.1 20.0 20.0 20.0 20.0 20.0 20.0 20.0 20.0 20.0 20.0 20.0 20.0 20.0 20.0 20.0 20.1 20.1 20.1 20.1 20.1 20.1 20.1 20.1 20.1 20.1 20.1 20.1 20.1 20.1 20.1 20.1 20.1 20.1 20.1 20.1 20.1 20.1 20.0 20.0 20.0 20.0 20.2 20.2 20.2 20.2 20.2 20.2 20.2 20.2 20.2 20.2 20.2 20.2 20.2 20.2 20.2 20.1 20.1 20.1 20.1 20.1 20.1 20.1 20.1 20.1 20.0 20.0 20.2 20.3 20.3 20.4 20.4 20.3 20.3 20.3 20.4 20.4 20.3 20.3 20.3 20.3 20.2 20.2 20.2 20.2 20.2 20.2 20.2 20.2 20.1 20.1 20.0 20.0 20.3 20.4 20.4 20.5 20.5 20.5 20.5 20.5 20.5 20.5 20.4 20.4 20.4 20.4 20.3 20.3 20.3 20.3 20.3 20.3 20.3 20.2 20.2 20.1 20.0 20.0 20.4 20.5 20.5 20.6 20.6 20.6 20.6 20.6 20.6 20.6 20.6 20.5 20.5 20.5 20.5 20.4 20.4 20.4 20.4 20.4 20.4 20.3 20.2 20.1 20.1 20.0 20.6 20.6 20.7 20.7 20.8 20.8 20.8 20.8 20.8 20.8 20.7 20.6 20.6 20.6 20.6 20.5 20.5 20.5 20.5 20.5 20.4 20.3 20.2 20.1 20.1 20.0 20.7 20.7 20.8 20.9 20.9 20.9 21.0 21.0 21.0 21.0 20.9 20.8 20.8 20.7 20.7 20.7 20.7 20.6 20.6 20.5 20.4 20.3 20.2 20.1 20.1 20.0 20.8 20.9 21.0 21.1 21.1 21.1 21.2 21.2 21.2 21.1 21.0 20.9 20.9 20.9 20.9 20.8 20.8 20.7 20.6 20.5 20.4 20.3 20.2 20.1 20.1 20.0 21.0 21.1 21.2 21.3 21.3 21.3 21.4 21.4 21.4 21.3 21.2 21.1 21.1 21.1 21.0 21.0 20.9 20.8 20.7 20.6 20.5 20.3 20.2 20.2 20.1 20.0 21.2 21.3 21.4 21.5 21.5 21.6 21.7 21.7 21.6 21.5 21.4 21.3 21.3 21.3 21.2 21.1 21.0 20.9 20.7 20.6 20.5 20.4 20.3 20.2 20.1 20.0 21.3 21.5 21.6 21.8 21.8 21.9 22.0 22.1 22.0 21.8 21.7 21.6 21.6 21.5 21.4 21.2 21.1 20.9 20.8 20.7 20.5 20.4 20.3 20.2 20.1 20.0 21.5 21.7 21.9 22.1 22.2 22.3 22.4 22.5 22.3 22.2 22.0 21.9 21.8 21.7 21.5 21.3 21.2 21.0 20.9 20.7 20.6 20.5 20.3 20.2 20.1 20.0 21.8 22.0 22.2 22.4 22.5 22.7 22.9 23.0 22.8 22.5 22.4 22.3 22.1 21.9 21.7 21.5 21.3 21.1 21.0 20.8 20.6 20.5 20.3 20.2 20.1 20.0 22.2 22.4 22.6 22.8 23.1 23.3 23.5 23.6 23.3 23.0 22.9 22.7 22.4 22.1 21.8 21.6 21.4 21.2 21.0 20.9 20.7 20.5 20.4 20.2 20.1 20.0 22.7 23.1 23.3 23.5 23.8 24.1 24.3 24.4 24.0 23.7 23.4 23.1 22.7 22.3 22.0 21.8 21.6 21.3 21.1 20.9 20.7 20.5 20.4 20.2 20.1 20.1 24.6 27.3 27.4 25.4 25.4 26.1 26.3 25.8 25.0 24.5 24.0 23.5 23.1 22.6 22.3 22.0 21.7 21.4 21.2 20.9 20.7 20.6 20.4 20.3 20.1 20.1 32.1 46.9 46.1 31.3 25.9 27.7 29.3 28.1 26.4 25.4 24.7 24.1 23.5 22.9 22.5 22.2 21.8 21.5 21.3 21.0 20.8 20.6 20.5 20.3 20.1 20.1 50.9 79.4 74.5 43.8 27.1 29.7 34.2 33.1 29.5 26.7 25.5 24.7 23.9 23.2 22.7 22.3 22.0 21.7 21.4 21.2 20.9 20.7 20.5 20.3 20.2 20.1 67.2 104.1 102.1 65.5 37.1 37.8 46.9 48.6 40.2 29.4 26.5 25.3 24.4 23.6 23.1 22.6 22.2 21.9 21.6 21.3 21.0 20.8 20.6 20.4 20.2 20.1 71.8 130.7 166.5 135.9 76.4 72.7 96.2 85.1 56.6 35.4 28.4 26.5 25.3 24.3 23.5 22.9 22.5 22.1 21.7 21.4 21.1 20.8 20.6 20.3 20.2 20.1 71.3 148.3 238.7 220.8 135.8 162.8 219.5 170.1 98.1 57.7 33.6 28.0 26.3 24.9 24.0 23.2 22.6 22.1 21.7 21.3 21.0 20.8 20.5 20.3 20.2 20.1 54.5 111.9 219.3 229.3 145.8 185.7 260.6 237.8 185.8 116.3 51.1 28.7 26.5 25.1 24.1 23.3 22.6 22.1 21.6 21.3 21.0 20.8 20.5 20.3 20.2 20.1 34.2 55.4 115.4 159.1 130.9 125.0 155.6 190.6 185.4 111.7 50.6 27.7 25.7 24.7 23.8 23.1 22.5 22.0 21.6 21.3 21.0 20.8 20.6 20.3 20.2 20.1 27.5 30.9 41.4 74.9 90.3 72.0 71.0 92.3 83.1 47.7 31.5 26.0 24.7 24.0 23.4 22.8 22.3 21.8 21.5 21.3 21.0 20.8 20.6 20.3 20.2 20.1 24.2 26.7 28.7 35.3 38.4 35.8 39.7 39.1 31.4 27.5 26.0 24.9 24.1 23.5 22.9 22.5 22.0 21.7 21.4 21.1 20.9 20.7 20.5 20.3 20.2 20.1 20.0 20.1 20.1 20.1 20.1 20.1 20.0 20.1 20.1 20.1 20.1 20.0 20.0 20.0 20.0 20.0 20.0 20.0 20.0 20.0 20.0 20.0 20.0 20.0 20.0 20.0 20.1 20.1 20.1 20.1 20.1 20.1 20.1 20.1 20.1 20.1 20.1 20.1 20.1 20.1 20.1 20.1 20.1 20.1 20.1 20.1 20.1 20.1 20.1 20.1 20.0 20.0 20.2 20.2 20.2 20.2 20.3 20.2 20.2 20.2 20.3 20.3 20.2 20.2 20.2 20.2 20.2 20.2 20.2 20.2 20.1 20.2 20.2 20.2 20.1 20.1 20.1 20.0 20.2 20.3 20.3 20.4 20.4 20.3 20.3 20.4 20.4 20.4 20.4 20.3 20.3 20.3 20.3 20.3 20.3 20.2 20.2 20.2 20.2 20.2 20.2 20.1 20.1 20.0 20.3 20.4 20.4 20.5 20.5 20.5 20.5 20.5 20.5 20.5 20.5 20.4 20.4 20.4 20.4 20.4 20.4 20.4 20.4 20.4 20.3 20.3 20.2 20.1 20.1 20.0 20.5 20.5 20.6 20.6 20.6 20.6 20.7 20.7 20.7 20.7 20.6 20.5 20.5 20.5 20.5 20.5 20.5 20.5 20.5 20.5 20.4 20.3 20.2 20.2 20.1 20.0 20.6 20.6 20.7 20.7 20.8 20.8 20.8 20.8 20.9 20.9 20.8 20.7 20.7 20.7 20.7 20.6 20.6 20.6 20.6 20.5 20.4 20.3 20.2 20.1 20.1 20.0 20.7 20.8 20.8 20.9 20.9 20.9 21.0 21.0 21.0 21.0 21.0 20.9 20.8 20.8 20.8 20.8 20.7 20.7 20.7 20.6 20.5 20.4 20.2 20.1 20.1 20.0 20.9 20.9 21.0 21.1 21.1 21.1 21.2 21.2 21.2 21.2 21.1 21.0 21.0 21.0 21.0 20.9 20.9 20.8 20.7 20.6 20.5 20.4 20.2 20.2 20.1 20.0 21.0 21.1 21.2 21.3 21.3 21.4 21.4 21.5 21.5 21.4 21.3 21.2 21.2 21.2 21.1 21.0 21.0 20.9 20.8 20.6 20.5 20.4 20.3 20.2 20.1 20.0 21.2 21.3 21.4 21.5 21.5 21.6 21.8 21.8 21.7 21.7 21.6 21.5 21.4 21.4 21.3 21.2 21.1 21.0 20.8 20.7 20.5 20.4 20.3 20.2 20.1 20.0 21.4 21.5 21.6 21.7 21.8 21.9 22.0 22.1 22.1 22.0 21.8 21.7 21.6 21.6 21.4 21.3 21.2 21.0 20.9 20.7 20.6 20.4 20.3 20.2 20.1 20.0 21.6 21.8 21.9 22.0 22.1 22.3 22.4 22.5 22.4 22.3 22.1 22.0 21.9 21.7 21.6 21.4 21.3 21.1 21.0 20.8 20.6 20.5 20.3 20.2 20.1 20.0 21.9 22.0 22.2 22.3 22.5 22.7 22.8 22.9 22.8 22.6 22.5 22.3 22.1 21.9 21.8 21.6 21.4 21.2 21.0 20.8 20.7 20.5 20.4 20.2 20.1 20.0 22.2 22.4 22.6 22.7 23.0 23.2 23.4 23.5 23.4 23.1 22.9 22.7 22.4 22.2 22.0 21.8 21.5 21.3 21.1 20.9 20.7 20.5 20.4 20.2 20.1 20.0 22.9 23.3 23.4 23.4 23.5 23.8 24.2 24.3 24.1 23.7 23.4 23.1 22.8 22.4 22.1 21.9 21.6 21.4 21.1 20.9 20.7 20.5 20.4 20.2 20.1 20.1 25.7 28.3 27.5 25.0 24.7 25.3 25.7 25.5 24.9 24.5 24.0 23.6 23.2 22.7 22.4 22.1 21.8 21.5 21.2 21.0 20.8 20.6 20.4 20.3 20.1 20.1 38.7 56.8 47.1 27.2 25.7 27.1 27.5 27.1 26.1 25.4 24.7 24.1 23.6 23.0 22.6 22.3 21.9 21.6 21.3 21.1 20.8 20.6 20.5 20.3 20.1 20.1 64.9 101.3 74.4 32.7 28.8 30.6 30.6 31.9 29.7 26.5 25.5 24.7 24.0 23.3 22.8 22.5 22.1 21.8 21.5 21.2 21.0 20.8 20.5 20.3 20.2 20.1 96.1 135.4 95.6 47.4 46.5 45.6 42.6 48.0 40.0 28.4 26.4 25.3 24.5 23.7 23.2 22.8 22.4 22.0 21.7 21.3 21.1 20.8 20.6 20.4 20.2 20.1 115.0 175.0 142.3 81.0 82.4 88.4 82.5 78.2 52.7 32.3 28.2 26.3 25.2 24.3 23.6 23.1 22.6 22.1 21.7 21.4 21.1 20.8 20.6 20.4 20.2 20.1 117.1 202.1 194.8 126.9 148.7 188.0 184.7 145.0 77.6 43.5 32.2 27.7 26.1 24.9 24.0 23.3 22.7 22.1 21.6 21.3 21.0 20.7 20.5 20.3 20.2 20.1 83.4 148.3 170.1 127.6 151.6 200.2 204.7 195.9 143.0 77.6 41.3 28.4 26.4 25.1 24.1 23.3 22.6 22.0 21.6 21.2 21.0 20.7 20.5 20.3 20.1 20.1 42.7 64.4 88.2 90.6 93.5 101.0 108.8 147.4 139.0 75.8 40.0 27.5 25.8 24.7 23.8 23.1 22.5 21.9 21.6 21.3 21.0 20.8 20.5 20.3 20.1 20.1 31.8 32.5 39.6 58.9 61.2 48.5 53.2 68.6 60.8 38.4 29.5 26.0 24.9 24.0 23.4 22.8 22.3 21.8 21.5 21.2 21.0 20.8 20.6 20.3 20.2 20.1 26.8 29.1 30.5 36.0 37.8 34.4 35.6 34.7 29.8 27.2 26.0 25.0 24.2 23.5 23.0 22.5 22.1 21.7 21.4 21.1 20.9 20.7 20.5 20.3 20.2 20.1 20.0 20.0 20.0 20.1 20.1 20.1 20.0 20.1 20.1 20.1 20.1 20.1 20.0 20.0 20.0 20.0 20.0 20.0 20.0 20.0 20.0 20.0 20.0 20.0 20.0 20.0 20.1 20.1 20.1 20.1 20.1 20.1 20.1 20.1 20.1 20.1 20.1 20.1 20.1 20.1 20.1 20.1 20.1 20.1 20.1 20.1 20.1 20.1 20.1 20.1 20.1 20.0 20.2 20.2 20.2 20.2 20.2 20.2 20.2 20.2 20.3 20.3 20.3 20.2 20.2 20.2 20.2 20.2 20.2 20.2 20.2 20.2 20.2 20.2 20.2 20.1 20.1 20.0 20.3 20.3 20.3 20.4 20.4 20.4 20.3 20.4 20.4 20.4 20.4 20.3 20.3 20.3 20.3 20.3 20.3 20.3 20.3 20.2 20.3 20.3 20.2 20.2 20.1 20.0 20.4 20.4 20.4 20.5 20.5 20.5 20.5 20.5 20.5 20.5 20.5 20.4 20.4 20.4 20.4 20.4 20.4 20.4 20.4 20.4 20.4 20.3 20.3 20.2 20.1 20.0 20.5 20.5 20.6 20.6 20.6 20.6 20.7 20.7 20.7 20.7 20.7 20.6 20.6 20.6 20.6 20.5 20.5 20.5 20.5 20.5 20.5 20.4 20.3 20.2 20.1 20.0 20.6 20.7 20.7 20.8 20.8 20.8 20.8 20.8 20.9 20.9 20.9 20.8 20.7 20.7 20.7 20.7 20.7 20.7 20.6 20.6 20.5 20.4 20.3 20.2 20.1 20.0 20.8 20.8 20.9 20.9 20.9 20.9 21.0 21.0 21.0 21.1 21.1 21.0 20.9 20.9 20.9 20.8 20.8 20.8 20.7 20.6 20.5 20.4 20.3 20.2 20.1 20.0 20.9 21.0 21.0 21.1 21.1 21.1 21.2 21.2 21.3 21.3 21.3 21.2 21.1 21.1 21.0 21.0 20.9 20.9 20.8 20.7 20.5 20.4 20.3 20.2 20.1 20.0 21.0 21.1 21.2 21.3 21.3 21.3 21.4 21.5 21.5 21.5 21.5 21.4 21.3 21.3 21.2 21.1 21.0 20.9 20.8 20.7 20.5 20.4 20.3 20.2 20.1 20.0 21.2 21.3 21.4 21.5 21.5 21.6 21.7 21.8 21.8 21.8 21.7 21.6 21.5 21.4 21.3 21.2 21.1 21.0 20.9 20.7 20.6 20.4 20.3 20.2 20.1 20.0 21.4 21.5 21.6 21.7 21.8 21.9 22.0 22.1 22.2 22.1 22.0 21.8 21.7 21.6 21.5 21.4 21.2 21.1 21.0 20.8 20.6 20.5 20.3 20.2 20.1 20.0 21.7 21.8 21.9 22.0 22.1 22.2 22.4 22.5 22.5 22.4 22.3 22.1 22.0 21.8 21.6 21.5 21.4 21.2 21.0 20.8 20.6 20.5 20.3 20.2 20.1 20.0 22.0 22.1 22.2 22.3 22.5 22.7 22.9 23.0 23.0 22.8 22.6 22.4 22.2 22.0 21.9 21.7 21.5 21.3 21.0 20.8 20.7 20.5 20.4 20.2 20.1 20.0 22.3 22.5 22.6 22.7 22.8 23.1 23.5 23.6 23.4 23.3 23.0 22.7 22.5 22.3 22.1 21.9 21.6 21.3 21.1 20.9 20.7 20.5 20.4 20.2 20.1 20.0 22.9 23.3 23.3 23.2 23.3 23.7 24.1 24.3 24.1 23.8 23.4 23.1 22.8 22.6 22.3 22.0 21.7 21.4 21.2 20.9 20.7 20.5 20.4 20.2 20.1 20.1 25.2 27.5 26.7 24.5 24.1 24.6 25.3 25.3 24.9 24.4 23.9 23.5 23.2 22.9 22.6 22.2 21.8 21.5 21.2 21.0 20.7 20.6 20.4 20.2 20.1 20.1 36.7 47.2 36.6 25.3 25.6 25.8 26.5 26.6 26.0 25.3 24.7 24.1 23.7 23.3 22.8 22.4 22.0 21.6 21.3 21.1 20.8 20.6 20.4 20.3 20.1 20.1 60.8 81.8 51.0 28.3 31.7 30.1 29.0 31.0 29.6 26.5 25.4 24.7 24.1 23.6 23.1 22.6 22.2 21.8 21.5 21.2 21.0 20.7 20.5 20.3 20.2 20.1 105.3 124.0 81.8 66.0 76.9 57.8 41.2 49.0 42.3 28.8 26.5 25.4 24.6 24.0 23.4 22.8 22.4 22.0 21.7 21.3 21.1 20.8 20.6 20.3 20.2 20.1 140.2 172.7 131.0 123.7 140.0 104.7 79.7 80.8 57.3 32.7 28.3 26.5 25.2 24.4 23.8 23.2 22.7 22.2 21.7 21.3 21.1 20.8 20.6 20.3 20.2 20.1 134.9 190.8 161.7 164.8 198.4 178.8 168.7 136.4 73.1 37.6 30.7 27.7 26.1 25.0 24.2 23.5 22.8 22.1 21.6 21.2 20.9 20.7 20.5 20.3 20.2 20.1 94.4 141.9 131.7 139.6 178.5 181.7 186.8 172.0 107.5 46.4 32.9 28.2 26.4 25.2 24.2 23.4 22.7 22.0 21.6 21.2 20.9 20.7 20.5 20.3 20.1 20.1 56.1 72.2 71.5 76.9 88.6 89.8 99.6 121.3 98.4 47.6 33.8 27.8 25.9 24.9 23.8 23.1 22.5 22.0 21.5 21.2 20.9 20.7 20.5 20.3 20.1 20.1 42.5 39.6 41.6 49.7 47.7 41.4 46.4 57.1 51.4 37.4 31.1 26.5 25.1 24.3 23.5 22.9 22.3 21.9 21.5 21.2 20.9 20.7 20.5 20.3 20.2 20.1 34.2 36.9 34.5 36.1 36.2 33.4 33.7 35.1 32.7 29.4 27.1 25.3 24.5 23.8 23.2 22.7 22.2 21.8 21.4 21.1 20.9 20.7 20.5 20.3 20.1 20.1 20.1 20.1 20.1 20.1 20.1 20.1 20.0 20.0 20.1 20.1 20.1 20.1 20.0 20.0 20.0 20.0 20.1 20.1 20.1 20.1 20.1 20.1 20.1 20.1 20.1 20.0 20.1 20.1 20.1 20.1 20.1 20.1 20.1 20.1 20.1 20.1 20.1 20.1 20.1 20.1 20.1 20.1 20.1 20.1 20.1 20.1 20.1 20.1 20.1 20.1 20.1 20.0 20.2 20.2 20.2 20.3 20.3 20.2 20.2 20.2 20.2 20.3 20.3 20.2 20.2 20.2 20.2 20.2 20.2 20.2 20.2 20.2 20.2 20.2 20.2 20.2 20.1 20.1 20.3 20.3 20.4 20.4 20.4 20.4 20.4 20.4 20.4 20.4 20.4 20.3 20.3 20.3 20.3 20.3 20.3 20.3 20.3 20.3 20.3 20.3 20.3 20.2 20.1 20.0 20.4 20.4 20.5 20.5 20.5 20.5 20.5 20.5 20.5 20.5 20.5 20.5 20.4 20.4 20.4 20.4 20.4 20.5 20.5 20.4 20.4 20.4 20.3 20.2 20.1 20.0 20.5 20.6 20.6 20.7 20.7 20.7 20.7 20.7 20.7 20.7 20.7 20.7 20.6 20.6 20.6 20.6 20.6 20.6 20.6 20.6 20.5 20.4 20.3 20.2 20.1 20.1 20.7 20.7 20.8 20.8 20.9 20.8 20.8 20.8 20.9 20.9 21.0 20.9 20.8 20.8 20.8 20.8 20.7 20.7 20.7 20.6 20.6 20.4 20.3 20.2 20.1 20.1 20.8 20.9 20.9 21.0 21.0 21.0 21.0 21.0 21.1 21.2 21.3 21.2 21.0 21.0 21.0 20.9 20.9 20.8 20.8 20.7 20.6 20.4 20.3 20.2 20.1 20.1 21.0 21.0 21.1 21.1 21.2 21.2 21.2 21.2 21.3 21.4 21.5 21.4 21.3 21.2 21.2 21.0 21.0 20.9 20.8 20.7 20.6 20.5 20.3 20.2 20.1 20.0 21.1 21.2 21.2 21.3 21.4 21.4 21.5 21.5 21.5 21.6 21.7 21.6 21.4 21.4 21.3 21.2 21.1 21.0 20.9 20.7 20.6 20.5 20.3 20.2 20.1 20.0 21.3 21.4 21.4 21.5 21.6 21.6 21.7 21.8 21.8 21.9 21.9 21.7 21.6 21.5 21.4 21.3 21.2 21.1 20.9 20.8 20.6 20.5 20.3 20.2 20.1 20.0 21.6 21.6 21.7 21.8 21.9 21.9 22.0 22.1 22.2 22.2 22.1 22.0 21.8 21.7 21.5 21.4 21.3 21.2 21.0 20.8 20.6 20.5 20.3 20.2 20.1 20.0 21.9 21.9 22.0 22.0 22.2 22.2 22.4 22.6 22.7 22.6 22.4 22.2 22.0 21.8 21.7 21.6 21.4 21.3 21.1 20.9 20.6 20.5 20.3 20.2 20.1 20.0 22.2 22.3 22.3 22.4 22.5 22.7 22.9 23.1 23.2 23.0 22.7 22.5 22.2 22.1 21.9 21.7 21.6 21.3 21.1 20.9 20.6 20.5 20.3 20.2 20.1 20.0 22.5 22.6 22.7 22.7 22.8 23.1 23.5 23.6 23.6 23.4 23.0 22.7 22.5 22.4 22.2 21.9 21.7 21.4 21.2 20.9 20.7 20.5 20.3 20.2 20.1 20.0 23.0 23.3 23.3 23.1 23.2 23.5 24.0 24.3 24.2 23.9 23.4 23.1 22.9 22.7 22.4 22.1 21.8 21.5 21.2 20.9 20.7 20.5 20.3 20.2 20.1 20.0 24.6 25.9 25.3 24.1 23.8 24.2 24.9 25.2 25.0 24.4 23.9 23.6 23.3 23.1 22.7 22.3 21.9 21.6 21.3 21.0 20.7 20.5 20.4 20.2 20.1 20.1 32.3 34.8 29.1 25.7 24.9 25.2 26.1 26.6 26.1 25.2 24.6 24.2 23.8 23.5 23.0 22.5 22.1 21.7 21.4 21.1 20.8 20.6 20.4 20.3 20.1 20.1 50.6 55.3 37.3 29.6 30.4 29.8 28.3 30.0 29.4 26.8 25.4 24.8 24.3 23.9 23.3 22.7 22.2 21.9 21.6 21.4 21.0 20.7