<?xml version="1.0"?>
<VTKFile type="ImageData" version="1.0" byte_order="LittleEndian" header_type="UInt64">
<ImageData WholeExtent="25 50 0 25 1 1"
 Origin="15.0000 0.0000 0.0000" Spacing="0.6000 0.6000 0.6000">
<Piece Extent="25 50 0 25 1 1">
<PointData>
<DataArray Name="TEMPERATURE" NumberOfComponents="1" type="Float32" format="ascii">
31.8 28.3 30.9 35.6 39.5 41.9 39.8 36.5 38.0 38.6 32.1 28.2 26.5 23.8 22.8 24.1 25.6 26.0 25.9 25.6 25.9 26.1 26.5 26.1 24.7 23.5 38.1 34.4 34.9 37.2 38.8 39.4 38.0 37.3 40.1 42.3 38.5 35.4 32.8 28.1 25.2 25.0 26.1 26.9 26.9 26.7 26.9 27.2 27.3 26.9 25.7 24.6 47.6 45.2 42.5 39.3 37.1 36.2 35.4 36.7 40.4 44.6 45.4 44.8 42.0 36.1 30.6 27.1 26.5 27.4 27.6 27.6 27.9 28.2 28.2 27.9 26.5 25.2 50.6 49.7 44.2 37.8 35.8 35.5 34.3 35.5 39.0 42.1 44.1 45.1 43.8 39.8 33.9 28.6 26.3 26.5 27.1 27.6 28.0 28.2 28.3 28.3 27.3 26.2 47.9 45.9 40.1 34.9 34.1 34.6 33.8 35.6 39.0 40.2 40.6 40.3 39.1 36.7 32.3 28.1 26.0 25.7 26.4 27.2 27.6 27.7 27.6 27.8 27.4 26.7 42.7 39.4 36.2 33.9 32.9 33.4 33.7 35.5 38.4 39.3 38.5 36.4 34.3 32.5 29.6 27.0 25.7 25.2 25.7 26.7 27.4 27.6 27.5 27.2 26.5 25.7 35.2 33.5 33.1 32.6 32.0 32.3 33.0 34.7 37.3 38.4 37.2 35.0 33.1 31.7 29.7 27.9 26.5 25.4 25.4 26.1 26.8 27.3 27.2 26.6 25.6 24.5 28.5 29.2 31.0 31.7 32.0 32.1 32.3 34.1 36.0 35.9 35.4 35.4 34.7 33.7 32.0 30.1 28.2 26.3 25.3 25.3 25.7 26.7 26.9 26.7 25.7 24.4 26.0 27.0 30.8 37.6 40.5 38.9 36.4 34.1 33.6 32.8 33.6 35.7 36.6 36.1 34.2 31.6 29.4 27.6 25.9 24.9 25.1 26.0 26.5 27.3 26.7 25.1 26.3 27.8 38.4 53.9 57.1 50.8 43.8 35.7 31.2 30.4 31.7 34.0 35.4 35.5 34.2 31.9 29.8 28.6 27.1 25.4 24.8 25.0 25.5 27.1 27.3 26.1 28.9 34.0 52.1 69.3 69.4 58.2 47.3 37.9 30.6 28.8 29.8 32.2 33.5 32.6 31.3 30.1 29.0 28.6 27.8 26.1 25.0 24.8 25.2 26.8 27.3 26.6 34.7 42.6 60.3 72.5 70.8 57.9 46.3 40.5 34.3 29.8 28.2 30.4 32.1 30.7 28.6 27.8 27.8 28.1 28.0 27.0 26.0 25.6 25.7 26.1 25.7 25.0 43.9 50.2 60.3 66.0 63.1 55.7 46.4 42.8 39.6 34.0 28.7 28.3 30.3 30.0 28.1 27.1 27.2 27.5 27.8 27.7 27.3 27.1 26.7 26.0 24.7 23.9 57.8 58.8 61.5 61.4 55.5 55.3 49.5 42.8 39.4 36.8 30.7 27.3 28.7 29.7 28.6 27.1 26.7 27.0 27.3 27.4 27.5 27.8 27.5 26.5 24.6 23.2 69.4 65.4 66.3 66.3 57.6 58.5 54.8 45.3 37.4 36.4 32.6 28.1 27.9 29.4 29.2 27.5 26.6 26.7 26.9 26.9 26.9 27.4 27.4 26.8 24.8 23.1 72.2 71.5 72.2 74.3 65.5 63.0 59.8 52.0 39.8 35.3 34.0 30.0 28.1 29.0 29.6 28.7 27.3 26.7 26.6 26.7 26.8 27.2 27.3 26.8 24.9 23.2 77.2 85.1 79.8 76.9 65.6 59.4 60.3 59.4 46.6 36.2 34.0 31.3 29.0 29.2 29.9 29.9 28.7 27.4 26.8 26.7 27.0 27.5 27.7 27.1 25.3 23.6 89.5 100.8 88.6 76.0 60.5 52.5 56.6 61.9 53.5 39.7 33.8 31.9 30.2 29.7 30.1 30.5 30.2 29.3 28.0 27.2 27.2 27.7 28.0 27.7 26.1 24.5 102.6 107.4 99.1 83.7 62.8 55.5 59.3 64.1 57.9 43.3 35.0 32.5 31.4 31.1 31.1 31.3 31.3 30.6 29.0 27.7 27.5 27.7 27.9 28.0 26.8 25.5 114.3 116.7 118.3 106.5 85.2 77.4 75.6 74.9 65.9 48.8 38.1 32.9 32.2 32.8 33.0 32.5 31.6 30.4 28.7 27.8 27.6 27.6 27.6 27.8 27.1 26.0 117.3 131.2 139.1 130.7 119.6 115.1 103.5 98.4 87.2 60.5 43.1 33.7 31.6 33.2 34.7 34.3 32.2 30.0 28.2 27.3 27.2 27.2 27.2 27.5 27.0 25.9 109.7 132.2 143.9 138.3 135.0 140.9 124.5 114.2 104.8 72.1 48.1 35.1 31.6 33.9 36.3 35.9 32.6 29.6 27.6 26.7 26.5 26.8 27.2 27.6 26.8 25.5 98.1 117.6 122.6 117.4 113.1 113.0 100.3 103.1 110.4 88.5 59.0 38.5 33.1 34.8 36.4 35.4 32.2 29.6 27.9 26.7 26.5 27.1 27.6 27.8 26.7 25.4 94.5 102.9 94.9 86.1 74.6 65.9 62.8 78.2 96.2 86.1 58.1 38.6 33.0 33.4 34.1 33.3 31.6 30.3 29.1 27.7 27.0 27.4 27.9 27.9 26.8 25.7 97.0 99.5 87.4 75.1 57.7 52.7 51.7 54.0 61.8 56.7 42.2 34.8 32.0 31.4 31.6 31.5 31.0 30.4 29.4 28.1 27.3 27.3 27.8 27.9 26.9 25.9 78.8 97.6 88.1 79.4 65.0 59.2 53.7 46.5 44.0 40.1 35.6 33.3 31.4 30.6 30.5 30.5 30.1 29.6 28.6 27.7 27.2 27.1 27.4 27.8 27.1 26.1 
</DataArray>
</PointData>
</Piece>
</ImageData>
</VTKFile>
