<?xml version="1.0"?>
<VTKFile type="ImageData" version="1.0" byte_order="LittleEndian" header_type="UInt64">
<ImageData WholeExtent="0 25 0 25 1 1"
 Origin="0.0000 0.0000 0.0000" Spacing="0.6000 0.6000 0.6000">
<Piece Extent="0 25 0 25 1 1">
<PointData>
<DataArray Name="TEMPERATURE" NumberOfComponents="1" type="Float32" format="ascii">
23.0 23.5 23.3 22.8 23.2 24.0 24.1 24.3 24.3 23.9 23.7 23.1 23.3 23.6 24.3 25.4 26.8 28.1 28.1 27.9 30.7 31.9 31.1 31.9 35.1 41.1 24.5 25.0 24.9 24.8 25.6 26.5 26.7 26.6 26.1 25.3 24.7 24.1 24.3 25.3 27.1 29.1 30.8 31.6 31.3 31.6 32.5 31.9 31.6 33.1 36.6 42.0 25.9 26.7 27.1 27.1 27.7 28.4 28.8 28.4 27.4 26.5 25.6 25.1 25.5 27.4 30.1 31.9 32.7 32.8 33.1 34.1 33.3 31.1 31.3 33.7 37.7 40.9 26.2 27.1 27.7 27.6 27.9 28.3 28.5 28.2 27.2 26.1 25.5 25.8 27.2 29.8 32.0 32.5 32.4 32.7 33.2 33.4 32.6 31.3 32.8 36.0 38.6 37.7 25.5 26.8 27.9 27.7 27.7 28.0 28.4 28.7 27.7 26.3 25.7 26.5 28.6 31.6 33.9 34.8 35.2 35.3 35.1 33.9 32.2 31.3 33.4 36.6 37.5 35.0 25.2 26.5 27.5 27.3 27.3 28.1 28.9 28.6 27.5 26.4 26.3 27.8 30.5 33.6 35.8 36.9 37.3 37.2 36.3 33.9 31.5 30.7 32.2 35.0 36.9 36.4 24.6 26.0 27.1 27.0 27.3 28.1 28.6 28.4 27.6 26.8 27.1 28.9 32.0 34.7 36.2 36.8 37.2 36.9 35.5 32.8 30.7 30.7 32.5 37.1 42.9 45.4 24.3 25.7 26.9 26.8 27.3 27.9 28.2 28.5 28.0 27.2 27.4 29.1 31.9 33.9 34.7 35.2 35.5 34.9 33.5 31.7 30.7 31.2 34.3 42.9 51.1 53.5 24.5 25.7 26.8 26.9 27.3 27.9 28.4 28.7 28.2 27.5 27.7 29.3 31.7 33.2 33.9 34.4 34.6 34.0 32.4 30.9 30.7 32.5 37.8 47.0 52.5 52.2 23.5 25.1 26.6 26.8 27.3 28.1 28.9 29.2 28.8 28.1 28.3 29.6 31.2 32.1 32.7 33.4 33.4 32.3 30.5 29.4 31.0 36.2 42.8 47.4 49.2 49.5 23.4 25.2 26.5 26.7 27.4 28.5 29.7 30.1 29.5 28.6 28.6 29.3 30.0 30.5 31.7 32.8 32.4 30.7 29.0 29.3 33.5 41.2 47.0 47.9 48.5 50.7 23.7 25.4 26.7 26.6 27.3 28.7 30.3 30.6 29.9 29.0 28.6 28.2 28.2 28.9 30.8 32.3 31.8 30.2 30.0 33.4 39.8 45.4 47.1 46.5 47.0 50.8 24.3 25.9 26.6 26.4 27.2 29.2 31.0 30.8 29.8 28.9 28.1 27.4 27.4 28.8 30.8 31.8 31.5 31.1 33.3 39.0 44.8 46.1 44.4 43.2 43.6 49.3 25.0 26.4 26.7 26.4 27.6 29.4 30.8 30.6 29.7 28.5 27.5 26.9 27.5 29.5 31.2 31.6 31.7 32.8 35.8 40.1 42.6 41.2 39.5 38.9 39.0 44.6 25.1 26.6 26.9 26.5 27.5 28.9 30.1 30.4 29.7 28.3 27.4 27.3 28.4 30.3 31.4 31.4 32.1 33.6 35.6 37.3 37.4 36.0 35.5 35.5 35.2 39.3 25.4 26.8 27.0 26.4 27.2 28.4 29.8 30.1 29.3 28.2 27.7 28.0 29.1 30.6 31.0 30.9 31.6 33.0 34.2 34.5 34.3 34.5 36.1 37.1 37.4 43.6 26.0 27.4 27.4 26.6 27.5 28.4 29.4 29.3 28.5 27.9 27.8 28.2 29.5 30.9 31.0 30.3 30.7 32.1 32.7 32.7 34.8 39.3 45.1 49.6 52.4 64.2 26.3 27.7 28.0 27.1 27.4 27.8 28.3 28.1 27.6 27.5 27.5 27.9 29.4 31.3 31.6 30.3 30.5 31.6 31.5 32.9 39.1 46.9 55.1 63.1 70.3 87.8 26.4 28.1 28.8 27.7 27.2 26.9 26.9 26.7 26.5 26.5 26.6 27.1 29.1 32.5 33.0 30.7 30.8 31.7 31.2 34.2 41.8 49.0 56.4 66.8 81.6 101.9 26.7 28.6 29.7 28.4 27.1 25.8 25.4 25.4 25.3 25.4 25.7 26.6 30.1 35.5 36.3 32.5 31.2 31.4 31.0 33.7 39.6 46.0 54.1 70.9 93.4 109.2 27.2 28.8 30.0 29.3 27.8 26.1 25.6 25.7 25.7 25.7 26.1 27.4 31.6 38.8 43.7 41.3 36.4 33.7 32.0 32.2 36.1 44.4 58.1 77.5 94.5 106.3 27.0 28.6 29.7 29.5 29.0 27.9 27.4 27.2 27.1 27.1 28.0 29.7 32.9 41.7 52.8 53.7 45.3 37.9 33.7 31.9 35.0 43.2 55.0 69.1 84.9 103.3 26.2 27.7 28.8 29.5 29.9 29.4 28.5 27.7 27.5 27.6 29.0 30.8 33.0 39.6 49.2 52.2 46.7 40.3 35.3 32.4 35.1 40.7 46.2 57.6 80.2 107.4 25.2 26.7 28.1 29.2 29.9 29.5 28.5 27.7 27.5 27.5 28.4 30.2 32.0 34.2 37.7 40.6 41.4 41.4 37.8 33.8 36.8 43.3 51.0 66.9 89.8 113.6 24.5 26.0 27.6 28.5 29.1 28.9 28.4 28.0 27.7 27.4 28.2 29.6 30.8 31.6 32.6 34.6 38.7 43.1 41.1 35.1 36.5 44.4 52.7 64.2 83.9 109.3 24.6 25.9 27.1 27.9 28.5 28.5 28.4 28.4 28.0 27.5 27.9 28.6 29.0 29.6 30.7 32.5 36.6 43.2 45.9 39.4 33.7 36.7 42.2 46.0 62.2 73.3 
</DataArray>
</PointData>
</Piece>
</ImageData>
</VTKFile>
