<?xml version="1.0"?>
<VTKFile type="ImageData" version="1.0" byte_order="LittleEndian" header_type="UInt64">
<ImageData WholeExtent="0 25 0 25 1 1"
 Origin="0.0000 0.0000 0.0000" Spacing="0.6000 0.6000 0.6000">
<Piece Extent="0 25 0 25 1 1">
<PointData>
<DataArray Name="TEMPERATURE" NumberOfComponents="1" type="Float32" format="ascii">
20.0 20.0 20.0 20.0 20.6 22.8 25.4 25.7 24.6 25.0 28.1 30.7 31.8 32.2 31.4 28.2 23.9 21.7 21.1 21.1 21.3 21.6 23.7 26.3 27.7 28.1 20.0 20.0 20.0 20.2 22.1 26.2 29.4 29.5 28.1 27.9 29.5 31.6 33.1 33.7 32.9 30.3 26.3 23.5 22.5 22.7 23.3 23.9 25.5 27.4 29.1 29.7 20.0 20.0 20.0 20.6 24.4 30.5 34.1 34.3 33.0 31.6 31.0 31.6 32.7 33.2 32.4 30.4 27.7 25.2 23.8 23.8 24.6 25.5 26.1 27.2 29.5 31.2 20.0 20.0 20.0 20.9 24.9 31.0 34.5 35.3 34.6 32.8 30.8 30.0 30.1 30.3 29.3 27.5 26.0 24.8 23.7 23.2 23.8 25.1 26.4 26.7 28.1 29.9 20.0 20.0 20.0 20.8 24.5 30.1 33.7 34.7 34.1 32.2 30.3 29.2 29.0 29.0 27.8 25.8 24.5 23.8 23.1 22.9 23.9 26.4 28.6 28.5 28.0 27.9 20.0 20.0 20.1 21.2 24.9 29.7 33.0 34.4 33.5 31.5 30.5 29.9 29.5 28.6 26.6 24.5 23.4 22.9 22.7 23.0 24.8 27.8 29.4 29.9 29.1 27.2 20.0 20.0 20.2 21.6 25.1 29.3 32.8 34.9 34.2 32.6 32.3 31.8 30.1 27.8 25.2 23.7 23.2 22.9 22.8 23.5 25.5 27.9 29.8 31.4 33.0 31.5 20.0 20.0 20.2 21.1 23.5 27.4 31.5 34.0 33.7 32.9 33.4 32.9 29.9 26.4 24.0 23.1 22.9 22.9 23.0 23.9 26.2 30.6 35.6 42.2 52.2 50.0 20.0 20.0 20.1 20.4 21.5 24.0 28.1 30.9 30.9 31.2 32.8 32.8 29.6 25.6 23.6 23.0 22.9 22.9 23.2 24.7 29.5 38.9 48.5 60.7 74.6 69.7 20.0 20.0 20.2 20.9 22.1 23.8 26.5 28.4 28.0 28.5 30.6 31.3 28.8 25.3 23.7 23.8 23.8 23.4 23.8 27.2 36.2 49.7 61.4 72.3 80.8 76.3 20.0 20.3 21.9 25.0 27.8 29.2 29.6 28.5 26.4 25.7 27.1 28.2 26.9 24.7 24.3 26.2 27.3 26.0 25.9 30.5 41.4 55.9 65.9 72.5 77.5 76.7 20.2 21.7 26.0 31.1 34.3 34.9 32.8 29.0 25.6 23.9 24.3 25.3 25.1 24.1 25.4 30.3 33.7 31.7 29.8 33.2 43.7 55.5 61.3 66.2 70.8 70.4 20.9 23.6 29.2 34.0 36.2 35.3 32.1 28.6 25.8 23.8 23.1 23.7 24.0 23.9 26.8 34.4 39.8 38.2 35.5 38.6 46.1 51.0 53.4 58.4 61.7 59.4 21.8 24.8 30.1 33.5 34.3 32.6 30.2 28.7 27.2 25.0 23.1 22.7 23.1 23.8 27.7 36.2 42.2 41.3 39.3 41.9 44.5 43.8 45.7 49.5 51.9 54.1 22.7 25.6 30.1 32.4 32.4 30.5 28.9 28.5 27.8 25.8 23.5 22.4 22.5 24.2 28.5 35.0 39.4 39.2 37.8 39.0 40.0 39.4 39.8 40.4 44.6 55.6 23.9 26.5 30.3 32.0 31.9 29.9 28.0 27.4 27.0 25.6 23.6 22.5 22.5 24.6 28.8 32.5 34.3 34.4 34.1 34.9 35.5 35.5 34.2 33.0 40.2 56.8 25.3 27.7 30.8 32.0 31.7 29.8 27.5 26.5 26.2 25.2 23.7 22.7 22.7 24.5 27.4 29.6 30.5 30.8 31.4 31.9 31.6 31.1 30.9 30.4 38.7 57.8 23.9 25.7 28.5 30.2 30.6 29.1 27.0 26.2 26.5 25.9 24.2 23.0 22.8 23.9 25.9 27.7 28.6 29.0 29.9 31.0 31.0 31.1 32.7 34.6 40.2 58.2 21.1 22.2 25.3 28.8 30.4 29.2 26.6 25.3 25.8 26.1 24.9 23.3 22.7 23.2 24.8 26.9 27.9 28.1 29.2 31.3 32.6 34.2 37.1 45.0 50.9 63.1 20.1 21.1 24.6 28.9 31.1 30.0 26.7 24.4 24.1 24.6 24.4 23.4 22.6 22.6 23.9 26.3 28.2 29.6 30.7 31.9 32.9 36.6 46.6 65.4 72.6 74.4 20.1 21.0 24.1 28.3 30.5 30.0 27.0 24.4 23.4 23.4 23.4 23.1 22.7 24.0 26.8 30.4 34.7 36.0 33.4 31.6 33.7 47.5 71.7 92.1 94.9 89.3 20.7 21.3 23.4 26.5 28.8 29.2 27.3 24.5 23.2 23.0 22.9 22.8 23.8 29.7 37.2 41.2 45.9 44.9 36.9 31.4 32.3 51.2 81.0 94.3 94.6 92.8 20.7 21.1 22.1 23.8 26.0 27.9 27.5 24.9 23.0 22.7 23.1 23.5 24.8 30.8 38.8 47.1 57.0 56.6 44.8 34.7 30.8 39.2 60.3 71.6 72.8 79.2 20.2 20.3 20.8 21.9 24.3 26.7 27.0 25.1 23.7 24.5 25.8 25.8 25.5 26.8 30.2 40.0 58.1 66.6 57.1 44.1 36.7 35.7 42.9 50.0 54.2 65.7 20.1 20.4 21.5 23.4 25.7 27.2 26.9 25.6 25.5 27.6 29.3 28.2 26.6 26.1 26.5 30.3 45.4 63.6 67.0 57.7 47.0 40.3 36.6 36.1 40.9 50.5 20.3 21.4 24.0 26.8 28.8 29.4 28.2 26.7 26.8 28.9 30.3 29.2 27.3 26.4 26.3 27.1 32.9 48.0 62.0 63.6 55.7 46.3 39.2 33.7 33.1 33.5 
</DataArray>
</PointData>
</Piece>
</ImageData>
</VTKFile>
