<?xml version="1.0"?>
<VTKFile type="RectilinearGrid" version="1.0" byte_order="LittleEndian" header_type="UInt64">
<RectilinearGrid WholeExtent="0 25 0 25 0 15">
<Piece Extent="0 25 0 25 0 15">
<Coordinates>
<DataArray type="Float64" Name="Array X-Axis" format="ascii" RangeMin="0.0" RangeMax="15.0">
0.0 0.6 1.2 1.8 2.4 3.0 3.6 4.2 4.8 5.4 6.0 6.6 7.2 7.8 8.4 9.0 9.6 10.2 10.8 11.4 12.0 12.6 13.2 13.8 14.4 15.0 
</DataArray>
<DataArray type="Float64" Name="Array Y-Axis" format="ascii" RangeMin="0.0" RangeMax="15.0">
0.0 0.6 1.2 1.8 2.4 3.0 3.6 4.2 4.8 5.4 6.0 6.6 7.2 7.8 8.4 9.0 9.6 10.2 10.8 11.4 12.0 12.6 13.2 13.8 14.4 15.0 
</DataArray>
<DataArray type="Float64" Name="Array Z-Axis" format="ascii" RangeMin="0.0" RangeMax="9.0">
0.0 0.6 1.2 1.8 2.4 3.0 3.6 4.2 4.8 5.4 6.0 6.6 7.2 7.8 8.4 9.0 
</DataArray>
</Coordinates>
<PointData>
<DataArray Name="SOOT DENSITY" NumberOfComponents="1" type="UInt8" format="ascii">
0 0 0 0 0 0 0 0 0 0 0 0 0 0 0 0 0 0 0 0 0 0 0 0 0 0 0 0 0 0 0 0 0 0 0 0 0 0 0 0 0 0 0 0 0 0 0 0 0 0 0 0 0 0 0 0 0 0 0 0 0 0 0 0 0 0 0 0 0 0 0 0 0 0 0 0 0 0 0 0 0 0 0 0 0 0 0 0 0 0 0 0 0 0 0 0 0 0 0 0 0 0 0 0 0 0 0 0 0 0 0 0 0 0 0 0 0 0 0 0 0 0 0 0 0 0 0 0 0 0 0 0 0 0 0 0 0 0 0 0 0 0 0 0 0 0 0 0 0 0 0 0 0 0 0 0 0 0 0 0 0 0 0 0 0 0 0 0 0 0 0 0 0 0 0 0 0 0 0 0 0 0 0 0 0 0 0 0 0 0 0 0 0 0 0 0 0 0 0 0 0 0 0 0 0 0 0 0 0 0 0 0 0 0 0 0 0 0 0 0 0 0 0 0 0 0 0 0 0 0 0 0 0 0 0 0 0 0 0 0 0 0 0 0 0 0 0 0 0 0 0 0 0 0 0 0 0 0 0 0 0 0 0 0 0 0 0 0 0 0 0 0 0 0 0 0 0 0 0 0 0 0 0 0 0 0 0 0 0 0 0 0 0 0 0 0 0 0 0 0 0 0 0 0 0 0 0 0 0 0 0 0 0 0 0 0 0 0 0 0 0 0 0 0 0 0 0 0 0 0 0 0 0 0 0 0 0 0 0 0 0 0 0 0 0 0 0 0 0 0 0 0 0 0 0 0 0 0 0 0 0 0 0 0 0 0 0 0 0 0 0 0 0 0 0 0 0 0 0 0 0 0 0 0 0 0 0 0 0 0 0 0 0 0 0 0 0 0 0 0 0 0 0 0 0 0 0 0 0 0 0 0 0 0 0 0 0 0 0 0 0 0 0 0 0 0 0 0 0 0 0 0 0 0 0 0 0 0 0 0 0 0 0 0 0 0 0 0 0 0 0 0 0 0 0 0 0 0 0 0 0 0 0 0 0 0 0 0 0 0 0 0 0 0 0 0 0 0 0 0 0 0 0 0 0 0 0 0 0 0 0 0 0 0 0 0 0 0 0 0 0 0 0 0 0 0 0 0 0 0 0 0 0 0 0 0 0 0 0 0 0 0 0 0 0 0 0 0 0 0 0 0 0 0 0 0 0 0 0 0 0 0 0 0 0 0 0 0 0 0 0 0 0 0 0 0 0 0 0 0 0 0 0 0 0 0 0 0 0 0 0 0 0 0 0 0 0 0 0 0 0 0 0 0 0 0 0 0 0 0 0 0 0 0 0 0 0 0 0 0 0 0 0 0 0 0 0 0 0 0 0 0 0 0 0 0 0 0 0 0 0 0 0 0 0 0 0 0 0 0 0 0 0 0 0 0 0 0 0 0 0 0 0 0 0 0 0 0 0 0 0 0 0 0 0 0 0 0 0 0 0 0 0 0 0 0 0 0 0 0 0 0 0 0 0 0 0 0 0 0 0 0 0 0 0 0 0 0 0 0 0 0 0 0 0 0 0 0 0 0 0 0 0 0 0 0 0 0 0 0 0 0 0 0 0 0 0 0 0 0 0 0 0 0 0 0 0 0 0 0 0 0 0 0 0 0 0 0 0 0 0 0 0 0 0 0 0 0 0 0 0 0 0 0 0 0 0 0 0 0 0 0 0 0 0 0 0 0 0 0 0 0 0 0 0 0 0 0 0 0 0 0 0 0 0 0 0 0 0 0 0 0 0 0 0 0 0 0 0 0 0 0 0 0 0 0 0 0 0 0 0 0 0 0 0 0 0 0 0 0 0 0 0 0 0 0 0 0 0 0 0 0 0 0 0 0 0 0 0 0 0 0 0 0 0 0 0 0 0 0 0 0 0 0 0 0 0 0 0 0 0 0 0 0 0 0 0 0 0 0 0 0 0 0 0 0 0 0 0 0 0 0 0 0 0 0 0 0 0 0 0 0 0 0 0 0 0 0 0 0 0 0 0 0 0 0 0 0 0 0 0 0 0 0 0 0 0 0 0 0 0 0 0 0 0 0 0 0 0 0 0 0 0 0 0 0 0 0 0 0 0 0 0 0 0 0 0 0 0 0 0 0 0 0 0 0 0 0 0 0 0 0 0 0 0 0 0 0 0 0 0 0 0 0 0 0 0 0 0 0 0 0 0 0 0 0 0 0 0 0 0 0 0 0 0 0 0 0 0 0 0 0 0 0 0 0 0 0 0 0 0 0 0 0 0 0 0 0 0 0 0 0 0 0 0 0 0 0 0 0 0 0 0 0 0 0 0 0 0 0 0 0 0 0 0 0 0 0 0 0 0 0 0 0 0 0 0 0 0 0 0 0 0 0 0 0 0 0 0 0 0 0 0 0 0 0 0 0 0 0 0 0 0 0 0 0 0 0 0 0 0 0 0 0 0 0 0 0 0 0 0 0 0 0 0 0 0 0 0 0 0 0 0 0 0 0 0 0 0 0 0 0 0 0 0 0 0 0 0 0 0 0 0 0 0 0 0 0 0 0 0 0 0 0 0 0 0 0 0 0 0 0 0 0 0 0 0 0 0 0 0 0 0 0 0 0 0 0 0 0 0 0 0 0 0 0 0 0 0 0 0 0 0 0 0 0 0 0 0 0 0 0 0 0 0 0 0 0 0 0 0 0 0 0 0 0 0 0 0 0 0 0 0 0 0 0 0 0 0 0 0 0 0 0 0 0 0 0 0 0 0 0 0 0 0 0 0 0 0 0 0 0 0 0 0 0 0 0 0 0 0 0 0 0 0 0 0 0 0 0 0 0 0 0 0 0 0 0 0 0 0 0 0 0 0 0 0 0 0 0 0 0 0 0 0 0 0 0 0 0 0 0 0 0 0 0 0 0 0 0 0 0 0 0 0 0 0 0 0 0 0 0 0 0 0 0 0 0 0 0 0 0 0 0 0 0 0 0 0 0 0 0 0 0 0 0 0 0 0 0 0 0 0 0 0 0 0 0 0 0 0 0 0 0 0 0 0 0 0 0 0 0 0 0 0 0 0 0 0 0 0 0 0 0 0 0 0 0 0 0 0 0 0 0 0 0 0 0 0 0 0 0 0 0 0 0 0 0 0 0 0 0 0 0 0 0 0 0 0 0 0 0 0 0 0 0 0 0 0 0 0 0 0 0 0 0 0 0 0 0 0 0 0 0 0 0 0 0 0 0 0 0 0 0 0 0 0 0 0 0 0 0 0 0 0 0 0 0 0 0 0 0 0 0 0 0 0 0 0 0 0 0 0 0 0 0 0 0 0 0 0 0 0 0 0 0 0 0 0 0 0 0 0 0 0 0 0 0 0 0 0 0 0 0 0 0 0 0 0 0 0 0 0 0 0 0 0 0 0 0 0 0 0 0 0 0 0 0 0 0 0 0 0 0 0 0 0 0 0 0 0 0 0 0 0 0 0 0 0 0 0 0 0 0 0 0 0 0 0 0 0 0 0 0 0 0 0 0 0 0 0 0 0 0 0 0 0 0 0 0 0 0 0 0 0 0 0 0 0 0 0 0 0 0 0 0 0 0 0 0 0 0 0 0 0 0 0 0 0 0 0 0 0 0 0 0 0 0 0 0 0 0 0 0 0 0 0 0 0 0 0 0 0 0 0 0 0 0 0 0 0 0 0 0 0 0 0 0 0 0 0 0 0 0 0 0 0 0 0 0 0 0 0 0 0 0 0 0 0 0 0 0 0 0 0 0 0 0 0 0 0 0 0 0 0 0 0 0 0 0 0 0 0 0 0 0 0 0 0 0 0 0 0 0 0 0 0 0 0 0 0 0 0 0 0 0 0 0 0 0 0 0 0 0 0 0 0 0 0 0 0 0 0 0 0 0 0 0 0 0 0 0 0 0 0 0 0 0 0 0 0 0 0 0 0 0 0 0 0 0 0 0 0 0 0 0 0 0 0 0 0 0 0 0 0 0 0 0 0 0 0 0 0 0 0 0 0 0 0 0 0 0 0 0 0 0 0 0 0 0 0 0 0 0 0 0 0 0 0 0 0 0 0 0 0 0 0 0 0 0 0 0 0 0 0 0 0 0 0 0 0 0 0 0 0 0 0 0 0 0 0 0 0 0 1 2 0 0 0 0 0 0 0 0 0 0 0 0 0 0 0 0 0 0 0 0 0 0 0 0 1 3 0 0 0 0 0 0 0 0 0 0 0 0 0 0 0 0 0 0 0 0 0 0 0 0 0 2 0 0 0 0 0 0 0 0 0 0 0 0 0 0 0 0 0 0 0 0 0 0 0 0 0 2 0 0 0 0 0 0 0 0 0 0 0 0 0 0 0 0 0 0 0 0 0 0 0 0 0 2 0 0 0 0 0 0 0 0 0 0 0 0 0 0 0 0 0 0 0 0 0 0 0 0 0 1 0 0 0 0 0 0 0 0 0 0 0 0 0 0 0 0 0 0 0 0 0 0 0 0 0 0 0 0 0 0 0 0 0 0 0 0 0 0 0 0 0 0 0 0 0 0 0 0 0 0 0 0 0 0 0 0 0 0 0 0 0 0 0 0 0 0 0 0 0 0 0 0 0 0 0 0 0 0 0 0 0 0 0 0 0 0 0 0 0 0 0 0 0 0 0 0 0 0 0 0 0 0 0 0 0 0 0 0 0 0 0 0 0 0 0 0 0 0 0 0 0 0 0 0 0 0 0 0 0 0 0 0 0 0 0 0 0 0 0 0 0 0 0 0 0 0 0 0 0 0 0 0 0 0 0 0 0 0 0 0 0 0 0 0 0 0 0 0 0 0 0 0 0 0 0 0 0 0 0 0 0 0 0 0 0 0 0 0 0 0 0 0 0 0 0 0 0 0 0 0 0 0 0 0 0 0 0 0 0 0 0 0 0 0 0 0 0 0 0 0 0 0 0 0 0 0 0 0 0 0 0 0 0 0 0 0 0 0 0 0 0 0 0 0 0 0 0 0 0 0 0 0 0 0 0 0 0 0 0 0 0 0 0 0 0 0 0 0 0 0 0 0 0 0 0 0 0 0 0 0 0 0 0 0 0 0 0 0 0 0 0 0 0 0 0 0 0 0 0 0 0 0 0 0 0 0 0 0 0 0 0 0 0 0 0 0 0 0 0 0 0 0 0 0 0 0 0 0 0 0 0 0 0 0 0 0 0 0 0 0 0 0 0 0 0 0 0 0 0 0 0 0 0 0 0 0 0 0 0 0 0 0 0 0 0 0 0 0 0 0 0 0 0 0 0 0 0 0 0 0 0 0 0 0 0 0 0 0 0 0 0 0 0 0 0 0 0 0 0 0 0 0 0 0 0 0 0 0 0 0 0 0 0 0 0 0 0 0 0 0 0 0 0 0 0 0 0 0 0 0 0 0 0 0 0 0 0 0 0 0 0 0 0 0 0 0 0 0 0 0 0 0 0 0 0 0 0 0 0 0 0 0 0 0 0 0 0 0 0 0 0 0 0 0 0 0 0 0 0 0 0 0 0 0 0 0 0 0 0 0 0 0 0 0 0 0 0 0 0 0 0 0 0 0 0 0 0 0 0 0 0 0 0 0 0 0 0 0 0 2 0 0 0 0 0 0 0 0 0 0 0 0 0 0 0 0 0 0 0 0 0 0 0 0 11 24 0 0 0 0 0 0 0 0 0 0 0 0 0 0 0 0 0 0 0 0 0 0 0 0 16 33 0 0 0 0 0 0 0 0 0 0 0 0 0 0 0 0 0 0 0 0 0 0 0 0 7 26 0 0 0 0 0 0 0 0 0 0 0 0 0 0 0 0 0 0 0 0 0 0 0 0 4 37 0 0 0 0 0 0 0 0 0 0 0 0 0 0 0 0 0 0 0 0 0 0 0 0 4 48 0 0 0 0 0 0 0 0 0 0 0 0 0 0 0 0 0 0 0 0 0 0 0 0 1 33 0 0 0 0 0 0 0 0 0 0 0 0 0 0 0 0 0 0 0 0 0 0 0 0 0 7 0 0 0 0 0 0 0 0 0 0 0 0 0 0 0 0 0 0 0 0 0 0 0 0 0 0 0 0 0 0 0 0 0 0 0 0 0 0 0 0 0 0 0 0 0 0 0 0 0 0 0 0 0 0 0 0 0 0 0 0 0 0 0 0 0 0 0 0 0 0 0 0 0 0 0 0 0 0 0 0 0 0 0 0 0 0 0 0 0 0 0 0 0 0 0 0 0 0 0 0 0 0 0 0 0 0 0 0 0 0 0 0 0 0 0 0 0 0 0 0 0 0 0 0 0 0 0 0 0 0 0 0 0 0 0 0 0 0 0 0 0 0 0 0 0 0 0 0 0 0 0 0 0 0 0 0 0 0 0 0 0 0 0 0 0 0 0 0 0 0 0 0 0 0 0 0 0 0 0 0 0 0 0 0 0 0 0 0 0 0 0 0 0 0 0 0 0 0 0 0 0 0 0 0 0 0 0 0 0 0 0 0 0 0 0 0 0 0 0 0 0 0 0 0 0 0 0 0 0 0 0 0 0 0 0 0 0 0 0 0 0 0 0 0 0 0 0 0 0 0 0 0 0 0 0 0 0 0 0 0 0 0 0 0 0 0 0 0 0 0 0 0 0 0 0 0 0 0 0 0 0 0 0 0 0 0 0 0 0 0 0 0 0 0 0 0 0 0 0 0 0 0 0 0 0 0 0 0 0 0 0 0 0 0 0 0 0 0 0 0 0 0 0 0 0 0 0 0 0 0 0 0 0 0 0 0 0 0 0 0 0 0 0 0 0 0 0 0 0 0 0 0 0 0 0 0 0 0 0 0 0 0 0 0 0 0 0 0 0 0 0 0 0 0 0 0 0 0 0 0 0 0 0 0 0 0 0 0 0 0 0 0 0 0 0 0 0 0 0 0 0 0 0 0 0 0 0 0 0 0 0 0 0 0 0 0 0 0 0 0 0 0 0 0 0 0 0 0 0 0 0 0 0 0 0 0 0 0 0 0 0 0 0 0 0 0 0 0 0 0 0 0 0 0 0 0 0 0 0 0 0 0 0 0 0 0 0 2 0 0 0 0 0 0 0 0 0 0 0 0 0 0 0 0 0 0 0 0 0 0 0 0 1 9 0 0 0 0 0 0 0 0 0 0 0 0 0 0 0 0 0 0 0 0 0 0 0 1 25 60 0 0 0 0 0 0 0 0 0 0 0 0 0 0 0 0 0 0 0 0 0 0 0 2 35 85 0 0 0 0 0 0 0 0 0 0 0 0 0 0 0 0 0 0 0 0 0 0 0 1 19 69 0 0 0 0 0 0 0 0 0 0 0 0 0 0 0 0 0 0 0 0 0 0 0 1 17 80 0 0 0 0 0 0 0 0 0 0 0 0 0 0 0 0 0 0 0 0 0 0 0 1 13 87 0 0 0 0 0 0 0 0 0 0 0 0 0 0 0 0 0 0 0 0 0 0 0 0 4 53 0 0 0 0 0 0 0 0 0 0 0 0 0 0 0 0 0 0 0 0 0 0 0 0 0 13 0 0 0 0 0 0 0 0 0 0 0 0 0 0 0 0 0 0 0 0 0 0 0 0 0 1 0 0 0 0 0 0 0 0 0 0 0 0 0 0 0 0 0 0 0 0 0 0 0 0 0 0 0 0 0 0 0 0 0 0 0 0 0 0 0 0 0 0 0 0 0 0 0 0 0 0 0 0 0 0 0 0 0 0 0 0 0 0 0 0 0 0 0 0 0 0 0 0 0 0 0 0 0 0 0 0 0 0 0 0 0 0 0 0 0 0 0 0 0 0 0 0 0 0 0 0 0 0 0 0 0 0 0 0 0 0 0 0 0 0 0 0 0 0 0 0 0 0 0 0 0 0 0 0 0 0 0 0 0 0 0 0 0 0 0 0 0 0 0 0 0 0 0 0 0 0 0 0 0 0 0 0 0 0 0 0 0 0 0 0 0 0 0 0 0 0 0 0 0 0 0 0 0 0 0 0 0 0 0 0 0 0 0 0 0 0 0 0 0 0 0 0 0 0 0 0 0 0 0 0 0 0 0 0 0 0 0 0 0 0 0 0 0 0 0 0 0 0 0 0 0 0 0 0 0 0 0 0 0 0 0 0 0 0 0 0 0 0 0 0 0 0 0 0 0 0 0 0 0 0 0 0 0 0 0 0 0 0 0 0 0 0 0 0 0 0 0 0 0 0 0 0 0 0 0 0 0 0 0 0 0 0 0 0 0 0 0 0 0 0 0 0 0 0 0 0 0 0 0 0 0 0 0 0 0 0 0 0 0 0 0 0 0 0 0 0 0 0 0 0 0 0 0 0 0 0 0 0 0 0 0 0 0 0 0 0 0 0 0 0 0 0 0 0 0 0 0 0 0 0 0 0 0 0 0 0 0 0 0 0 0 0 0 0 0 0 0 0 0 0 0 0 0 0 0 0 0 0 0 0 0 0 0 0 0 0 0 0 0 0 0 0 0 0 0 0 0 0 0 0 0 0 0 0 0 0 0 0 0 0 0 0 0 0 0 0 0 0 0 0 0 0 0 0 0 0 0 0 0 0 0 0 0 0 0 0 2 20 0 0 0 0 0 0 0 0 0 0 0 0 0 0 0 0 0 0 0 0 0 0 0 1 21 68 0 0 0 0 0 0 0 0 0 0 0 0 0 0 0 0 0 0 0 0 0 0 0 3 46 116 0 0 0 0 0 0 0 0 0 0 0 0 0 0 0 0 0 0 0 0 0 0 0 4 50 147 0 0 0 0 0 0 0 0 0 0 0 0 0 0 0 0 0 0 0 0 0 0 0 5 61 165 0 0 0 0 0 0 0 0 0 0 0 0 0 0 0 0 0 0 0 0 0 0 0 10 85 183 0 0 0 0 0 0 0 0 0 0 0 0 0 0 0 0 0 0 0 0 0 0 0 9 59 169 0 0 0 0 0 0 0 0 0 0 0 0 0 0 0 0 0 0 0 0 0 0 0 2 11 92 0 0 0 0 0 0 0 0 0 0 0 0 0 0 0 0 0 0 0 0 0 0 0 0 2 20 0 0 0 0 0 0 0 0 0 0 0 0 0 0 0 0 0 0 0 0 0 0 0 0 0 4 0 0 0 0 0 0 0 0 0 0 0 0 0 0 0 0 0 0 0 0 0 0 0 0 0 0 0 0 0 0 0 0 0 0 0 0 0 0 0 0 0 0 0 0 0 0 0 0 0 0 0 0 0 0 0 0 0 0 0 0 0 0 0 0 0 0 0 0 0 0 0 0 0 0 0 0 0 0 0 0 0 0 0 0 0 0 0 0 0 0 0 0 0 0 0 0 0 0 0 0 0 0 0 0 0 0 0 0 0 0 0 0 0 0 0 0 0 0 0 0 0 0 0 0 0 0 0 0 0 0 0 0 0 0 0 0 0 0 0 0 0 0 0 0 0 0 0 0 0 0 0 0 0 0 0 0 0 0 0 0 0 0 0 0 0 0 0 0 0 0 0 0 0 0 0 0 0 0 0 0 0 0 0 0 0 0 0 0 0 0 0 0 0 0 0 0 0 0 0 0 0 0 0 0 0 0 0 0 0 0 0 0 0 0 0 0 0 0 0 0 0 0 0 0 0 0 0 0 0 0 0 0 0 0 0 0 0 0 0 0 0 0 0 0 0 0 0 0 0 0 0 0 0 0 0 0 0 0 0 0 0 0 0 0 0 0 0 0 0 0 0 0 0 0 0 0 0 0 0 0 0 0 0 0 0 0 0 0 0 0 0 0 0 0 0 0 0 0 0 0 0 0 0 0 0 0 0 0 0 0 0 0 0 0 0 0 0 0 0 0 0 0 0 0 0 0 0 0 0 0 0 0 0 0 0 0 0 0 0 0 0 0 0 0 0 0 0 0 0 0 0 0 0 0 0 0 0 0 0 0 0 0 0 0 0 0 0 0 0 0 0 0 0 0 0 0 0 0 0 0 0 0 0 0 0 0 0 0 0 0 0 0 0 0 0 0 0 0 0 0 0 0 0 0 0 0 0 0 0 0 0 0 0 0 0 1 0 0 0 0 0 0 0 0 0 0 0 0 0 0 0 0 0 0 0 0 0 0 0 0 3 24 0 0 0 0 0 0 0 0 0 0 0 0 0 0 0 0 0 0 0 0 0 0 0 3 34 100 0 0 0 0 0 0 0 0 0 0 0 0 0 0 0 0 0 0 0 0 0 0 4 23 71 148 0 0 0 0 0 0 0 0 0 0 0 0 0 0 0 0 0 0 0 0 0 0 6 31 83 179 0 0 0 0 0 0 0 0 0 0 0 0 0 0 0 0 0 0 0 0 0 0 4 21 110 216 0 0 0 0 0 0 0 0 0 0 0 0 0 0 0 0 0 0 0 0 0 0 3 36 160 235 0 0 0 0 0 0 0 0 0 0 0 0 0 0 0 0 0 0 0 0 0 0 3 37 147 231 0 0 0 0 0 0 0 0 0 0 0 0 0 0 0 0 0 0 0 0 0 0 1 20 80 181 0 0 0 0 0 0 0 0 0 0 0 0 0 0 0 0 0 0 0 0 0 0 0 10 35 84 0 0 0 0 0 0 0 0 0 0 0 0 0 0 0 0 0 0 0 0 0 0 0 0 2 15 0 0 0 0 0 0 0 0 0 0 0 0 0 0 0 0 0 0 0 0 0 0 0 0 0 0 0 0 0 0 0 0 0 0 0 0 0 0 0 0 0 0 0 0 0 0 0 0 0 0 0 0 0 0 0 0 0 0 0 0 0 0 0 0 0 0 0 0 0 0 0 0 0 0 0 0 0 0 0 0 0 0 0 0 0 0 0 0 0 0 0 0 0 0 0 0 0 0 0 0 0 0 0 0 0 0 0 0 0 0 0 0 0 0 0 0 0 0 0 0 0 0 0 0 0 0 0 0 0 0 0 0 0 0 0 0 0 0 0 0 0 0 0 0 0 0 0 0 0 0 0 0 0 0 0 0 0 0 0 0 0 0 0 0 0 0 0 0 0 0 0 0 0 0 0 0 0 0 0 0 0 0 0 0 0 0 0 0 0 0 0 0 0 0 0 0 0 0 0 0 0 0 0 0 0 0 0 0 0 0 0 0 0 0 0 0 0 0 0 0 0 0 0 0 0 0 0 0 0 0 0 0 0 0 0 0 0 0 0 0 0 0 0 0 0 0 0 0 0 0 0 0 0 0 0 0 0 0 0 0 0 0 0 0 0 0 0 0 0 0 0 0 0 0 0 0 0 0 0 0 0 0 0 0 0 0 0 0 0 0 0 0 0 0 0 0 0 0 0 0 0 0 0 0 0 0 0 0 0 0 0 0 0 0 0 0 0 0 0 0 0 0 0 0 0 0 0 0 0 0 0 0 0 0 0 0 0 0 0 0 0 0 0 0 0 0 0 0 0 0 0 0 0 0 0 0 0 0 0 0 0 0 0 0 0 0 0 0 0 0 0 0 0 0 0 0 0 0 0 0 0 0 0 0 0 0 0 0 0 0 0 0 0 0 0 0 0 0 0 0 0 0 0 0 0 0 0 0 0 0 0 0 0 0 0 1 0 0 0 0 0 0 0 0 0 0 0 0 0 0 0 0 0 0 0 0 0 0 0 1 4 13 0 0 0 0 0 0 0 0 0 0 0 0 0 0 0 0 0 0 0 0 0 0 1 12 50 98 0 0 0 0 0 0 0 0 0 0 0 0 0 0 0 0 0 0 0 0 0 0 6 50 116 167 0 0 0 0 0 0 0 0 0 0 0 0 0 0 0 0 0 0 0 0 0 2 22 80 139 196 0 0 0 0 0 0 0 0 0 0 0 0 0 0 0 0 0 0 0 0 0 2 25 72 149 225 0 0 0 0 0 0 0 0 0 0 0 0 0 0 0 0 0 0 0 0 0 1 15 90 201 244 0 0 0 0 0 0 0 0 0 0 0 0 0 0 0 0 0 0 0 0 0 1 10 84 202 243 0 0 0 0 0 0 0 0 0 0 0 0 0 0 0 0 0 0 0 0 0 1 5 42 138 211 0 0 0 0 0 0 0 0 0 0 0 0 0 0 0 0 0 0 0 0 0 0 2 22 65 119 0 0 0 0 0 0 0 0 0 0 0 0 0 0 0 0 0 0 0 0 0 0 0 1 4 22 0 0 0 0 0 0 0 0 0 0 0 0 0 0 0 0 0 0 0 0 0 0 0 0 0 0 0 0 0 0 0 0 0 0 0 0 0 0 0 0 0 0 0 0 0 0 0 0 0 0 0 0 0 0 0 0 0 0 0 0 0 0 0 0 0 0 0 0 0 0 0 0 0 0 0 0 0 0 0 0 0 0 0 0 0 0 0 0 0 0 0 0 0 0 0 0 0 0 0 0 0 0 0 0 0 0 0 0 0 0 0 0 0 0 0 0 0 0 0 0 0 0 0 0 0 0 0 0 0 0 0 0 0 0 0 0 0 0 0 0 0 0 0 0 0 0 0 0 0 0 0 0 0 0 0 0 0 0 0 0 0 0 0 0 0 0 0 0 0 0 0 0 0 0 0 0 0 0 0 0 0 0 0 0 0 0 0 0 0 0 0 0 0 0 0 0 0 0 0 0 0 0 0 0 0 0 0 0 0 0 0 0 0 0 0 0 0 0 0 0 0 0 0 0 0 0 0 0 0 0 0 0 0 0 0 0 0 0 0 0 0 0 0 0 0 0 0 0 0 0 0 0 0 0 0 0 0 0 0 0 0 0 0 0 0 0 0 0 0 0 0 0 0 0 0 0 0 0 0 0 0 0 0 0 0 0 0 0 0 0 0 0 0 0 0 0 0 0 0 0 0 0 0 0 0 0 0 0 0 0 0 0 0 0 0 0 0 0 0 0 0 0 0 0 0 0 0 0 0 0 0 0 0 0 0 0 0 0 0 0 0 0 0 0 0 0 0 0 0 0 0 0 0 0 0 0 0 0 0 0 0 0 0 0 0 0 0 0 0 0 0 0 0 0 0 0 0 0 0 0 0 0 0 0 0 0 0 0 0 0 0 0 0 0 0 0 0 0 0 0 0 0 0 0 0 0 0 0 0 0 0 0 0 0 1 1 0 0 0 0 0 0 0 0 0 0 0 0 0 0 0 0 0 0 0 0 0 0 0 2 7 11 0 0 0 0 0 0 0 0 0 0 0 0 0 0 0 0 0 0 0 0 0 0 1 21 70 100 0 0 0 0 0 0 0 0 0 0 0 0 0 0 0 0 0 0 0 0 0 1 5 53 145 187 0 0 0 0 0 0 0 0 0 0 0 0 0 0 0 0 0 0 0 0 0 4 34 104 183 222 0 0 0 0 0 0 0 0 0 0 0 0 0 0 0 0 0 0 0 0 0 10 58 131 196 235 0 0 0 0 0 0 0 0 0 0 0 0 0 0 0 0 0 0 0 0 1 16 58 155 225 246 0 0 0 0 0 0 0 0 0 0 0 0 0 0 0 0 0 0 0 0 1 13 41 130 218 242 0 0 0 0 0 0 0 0 0 0 0 0 0 0 0 0 0 0 0 0 0 5 17 50 132 196 0 0 0 0 0 0 0 0 0 0 0 0 0 0 0 0 0 0 0 0 0 1 7 23 50 93 0 0 0 0 0 0 0 0 0 0 0 0 0 0 0 0 0 0 0 0 0 0 2 3 4 16 0 0 0 0 0 0 0 0 0 0 0 0 0 0 0 0 0 0 0 0 0 0 0 0 0 0 0 0 0 0 0 0 0 0 0 0 0 0 0 0 0 0 0 0 0 0 0 0 0 0 0 0 0 0 0 0 0 0 0 0 0 0 0 0 0 0 0 0 0 0 0 0 0 0 0 0 0 0 0 0 0 0 0 0 0 0 0 0 0 0 0 0 0 0 0 0 0 0 0 0 0 0 0 0 0 0 0 0 0 0 0 0 0 0 0 0 0 0 0 0 0 0 0 0 0 0 0 0 0 1 0 0 0 0 0 0 0 0 0 0 0 0 0 0 0 0 0 0 0 0 0 0 0 0 0 0 0 0 0 0 0 0 0 0 0 0 0 0 0 0 0 0 0 0 0 0 0 0 0 0 0 0 0 0 0 0 0 0 0 0 0 0 0 0 0 0 0 0 0 0 0 0 0 0 0 0 0 0 0 0 0 0 0 0 0 0 0 0 0 0 0 0 0 0 0 0 0 0 0 0 0 0 0 0 0 0 0 0 0 0 0 0 0 0 0 0 0 0 0 0 0 0 0 0 0 0 0 0 0 0 0 0 0 0 0 0 0 0 0 0 0 0 0 0 0 0 0 0 0 0 0 0 0 0 0 0 0 0 0 0 0 0 0 0 0 0 0 0 0 0 0 0 0 0 0 0 0 0 0 0 0 1 0 0 0 0 0 0 0 0 0 0 0 0 0 0 0 0 0 0 0 0 0 0 0 0 0 1 0 0 0 0 0 0 0 0 0 0 0 0 0 0 0 0 0 0 0 0 0 0 0 0 1 1 0 0 0 0 0 0 0 0 0 0 0 0 0 0 0 0 0 0 0 0 0 0 0 0 1 2 0 0 0 0 0 0 0 0 0 0 0 0 0 0 0 0 0 0 1 0 0 0 1 1 3 4 0 0 0 0 0 0 0 0 0 0 0 0 0 0 0 0 0 0 1 1 1 1 2 4 10 12 0 0 0 0 0 0 0 0 0 0 0 0 0 0 0 0 0 1 1 1 1 3 6 22 59 76 0 0 0 0 0 0 0 0 0 0 0 0 0 0 0 0 0 1 1 1 3 8 14 45 130 169 0 0 0 0 0 0 0 0 0 0 0 0 0 0 0 0 0 0 0 1 3 13 44 113 194 224 0 0 0 0 0 0 0 0 0 0 0 0 0 0 0 0 0 0 0 0 2 24 85 164 220 241 0 0 0 0 0 0 0 0 0 0 0 0 0 0 0 0 0 0 0 0 4 39 111 195 236 245 0 0 0 0 0 0 0 0 0 0 0 0 0 0 0 0 0 0 0 1 11 47 97 171 222 235 0 0 0 0 0 0 0 0 0 0 0 0 0 0 0 0 0 0 1 1 13 46 71 85 122 167 0 0 0 0 0 0 0 0 0 0 0 0 0 0 0 0 0 1 1 1 6 25 52 58 52 75 0 0 0 0 0 0 0 0 0 0 0 0 0 0 0 0 0 1 1 1 1 5 18 23 15 15 0 0 0 0 0 0 0 0 0 0 0 0 0 0 0 0 0 0 0 0 0 0 0 0 0 0 0 0 1 1 1 1 0 0 0 0 0 0 0 1 1 1 1 1 1 1 1 1 1 2 2 2 0 1 1 1 1 1 1 1 1 1 1 1 1 1 1 1 1 1 1 2 2 2 4 6 7 4 0 1 1 1 1 1 1 1 1 1 1 1 2 2 2 2 2 2 2 2 2 3 6 10 10 6 0 0 1 1 1 1 1 1 1 1 1 1 2 2 2 2 2 2 2 2 2 3 6 9 8 6 0 0 1 1 1 1 1 1 1 1 1 1 2 2 2 2 2 2 2 2 3 3 5 6 5 4 0 0 1 1 1 1 1 1 1 1 1 1 2 2 3 2 2 2 2 2 2 3 3 3 3 3 0 0 1 1 1 1 1 1 1 1 1 1 2 2 2 2 2 2 2 2 2 2 3 2 2 2 0 0 1 1 1 1 1 1 1 1 1 1 2 2 2 2 2 2 3 2 2 2 3 2 2 2 0 0 1 1 1 1 1 1 1 1 1 1 2 2 2 3 3 3 3 2 2 2 3 3 2 3 0 0 0 1 1 1 1 1 1 1 1 1 2 2 3 3 3 3 3 2 2 2 3 3 3 4 0 0 0 1 1 1 1 1 1 1 1 1 1 2 3 3 4 3 3 3 2 2 3 3 5 10 0 0 0 0 1 1 1 1 1 1 1 1 1 2 3 5 5 4 4 4 3 3 3 3 10 21 0 0 0 0 1 1 1 1 1 1 1 2 2 3 4 6 6 5 5 5 4 3 3 5 16 25 0 0 0 0 1 1 1 1 1 1 1 2 4 4 4 5 6 7 7 7 5 3 3 5 14 20 0 0 0 0 0 1 1 1 1 1 2 2 5 6 5 4 5 7 7 7 5 4 4 6 12 19 0 0 0 0 0 1 1 1 1 1 2 2 5 8 6 4 4 5 6 7 6 7 12 18 22 25 0 0 0 0 1 1 1 1 1 1 1 2 4 7 6 5 4 6 7 7 7 14 26 42 59 75 0 0 0 0 0 1 1 1 1 1 1 1 3 5 5 5 6 7 7 7 10 34 54 69 111 141 0 0 0 0 0 1 1 1 1 1 1 1 3 4 5 6 7 7 5 5 15 62 96 128 181 203 0 0 0 0 1 1 1 1 1 1 2 2 3 4 6 6 5 4 4 6 18 80 136 181 220 235 0 0 0 0 1 1 1 1 1 2 2 2 3 4 5 5 4 4 4 6 27 96 165 213 236 242 0 1 1 1 1 1 1 1 1 1 2 2 3 3 4 4 6 7 7 6 31 101 160 199 222 230 0 1 1 1 1 1 1 1 1 1 1 2 2 3 4 4 11 15 12 11 26 83 128 135 146 178 0 0 0 1 1 1 1 1 1 1 1 1 2 3 4 4 14 23 20 16 19 47 86 92 84 102 0 0 0 0 1 1 1 1 1 1 1 1 2 3 4 4 12 28 29 19 15 20 36 40 35 38 2 5 7 8 7 5 4 3 4 4 4 5 6 8 11 10 8 8 10 14 17 19 24 27 29 20 6 9 16 20 17 12 9 8 8 8 8 8 10 13 18 20 20 20 23 30 31 26 31 43 44 35 6 11 18 20 17 14 12 11 11 11 12 13 15 19 24 25 24 21 23 27 27 34 57 77 72 51 5 9 14 14 13 12 12 11 11 12 13 16 21 24 26 25 23 22 24 25 28 44 72 88 74 49 6 9 11 11 10 10 10 10 12 12 14 19 25 28 28 26 26 27 29 29 29 38 58 65 48 32 4 8 8 8 8 8 9 10 11 12 15 22 29 31 29 27 26 30 34 33 28 28 36 35 25 21 5 7 6 6 7 7 9 10 10 11 14 22 30 32 31 31 30 32 36 34 25 21 21 18 14 16 5 7 7 7 8 8 10 11 11 11 14 22 28 32 35 36 33 31 33 29 21 17 16 12 10 13 3 8 10 9 10 10 11 12 12 13 16 22 28 31 34 35 33 30 29 26 20 17 16 14 10 12 3 9 11 10 11 10 11 12 14 16 18 21 25 28 30 32 31 28 25 23 20 17 18 18 13 14 3 7 8 9 10 9 9 11 14 17 18 20 23 27 29 29 28 28 26 23 20 19 20 21 21 41 3 6 8 8 9 9 9 10 12 15 17 18 20 24 28 30 31 30 27 24 22 20 21 27 45 85 3 6 8 8 8 8 9 9 11 13 15 18 21 25 31 35 33 31 29 28 24 21 23 42 79 112 2 5 7 8 8 8 9 9 10 12 15 20 26 30 34 35 35 36 38 35 27 22 25 52 93 110 1 4 6 7 8 9 9 10 11 13 15 21 29 33 31 30 34 43 46 39 27 19 22 44 76 89 1 4 6 8 8 9 9 10 11 13 16 21 30 34 29 25 30 40 43 34 23 18 22 34 53 68 1 4 7 9 9 9 9 9 10 13 16 21 31 33 26 22 27 37 39 31 26 35 54 64 66 80 1 4 7 8 8 8 8 8 10 12 16 21 29 31 25 24 32 41 40 32 33 60 102 117 126 155 1 3 6 7 7 7 8 9 10 13 15 19 26 28 25 31 41 44 38 32 37 90 146 157 174 200 1 3 5 5 6 7 9 11 12 13 14 17 24 28 29 36 43 41 33 34 45 124 174 178 194 212 1 3 5 7 8 9 12 14 14 14 15 17 23 28 30 34 40 39 35 45 58 139 191 203 219 230 1 5 8 9 9 10 13 15 15 17 19 20 23 25 25 32 44 46 37 39 71 156 207 225 235 240 7 10 10 9 9 9 12 15 17 19 20 22 25 24 23 40 62 61 43 29 63 153 203 219 230 237 8 11 12 10 9 9 11 14 16 17 17 19 22 23 23 42 77 84 63 47 49 108 166 185 202 221 2 7 12 12 11 10 11 13 15 15 15 16 19 20 20 37 86 110 88 63 56 70 105 128 157 184 1 5 11 12 11 10 10 11 13 14 16 18 20 20 18 34 84 121 113 82 63 60 61 60 88 112 30 52 47 45 42 31 27 22 23 22 29 32 39 50 65 55 38 37 40 63 77 74 87 116 126 93 56 64 69 66 58 48 41 39 41 42 45 49 60 76 90 95 93 85 83 92 97 101 116 137 138 123 47 62 69 65 56 50 47 47 49 53 57 65 81 98 106 106 99 89 88 98 111 130 150 162 153 127 39 54 59 54 48 46 45 47 49 52 63 81 99 107 105 95 89 90 100 111 123 139 153 158 142 109 38 49 50 47 45 43 43 48 52 57 73 96 113 115 107 96 92 98 109 115 117 120 127 125 107 85 28 41 42 43 44 42 44 49 53 61 82 106 119 117 109 103 99 104 112 112 101 91 90 85 75 73 28 38 39 42 44 43 45 48 50 58 81 106 118 117 118 119 114 112 117 110 90 73 66 57 55 65 24 35 39 45 49 49 49 48 49 56 76 97 109 115 126 131 121 111 109 99 80 65 56 46 46 57 22 38 45 50 56 56 54 52 52 60 75 89 98 107 120 126 117 105 101 94 79 66 59 51 44 47 13 36 45 52 58 55 53 55 58 63 70 77 86 96 107 111 104 97 93 89 80 71 69 61 48 62 12 32 41 49 52 48 48 53 60 65 67 73 85 96 101 99 95 94 91 87 82 77 79 76 78 122 12 30 40 46 47 45 45 47 54 58 61 70 85 95 98 96 95 96 92 86 80 77 85 102 130 169 11 31 41 43 44 42 42 44 49 52 57 69 83 92 96 96 95 94 94 90 82 79 92 127 161 181 10 30 38 40 41 40 40 44 50 54 60 73 84 90 94 93 95 102 107 104 96 91 103 135 158 166 10 27 35 40 40 37 38 43 49 56 64 76 85 89 89 87 95 112 120 113 99 89 96 118 132 142 8 25 36 42 40 36 38 42 47 53 61 72 82 84 81 80 89 109 117 105 85 71 76 91 107 144 7 24 38 44 42 39 42 44 46 50 57 67 77 78 73 73 82 98 105 94 81 77 93 119 143 188 6 23 37 41 40 42 46 48 49 52 57 65 73 74 71 76 86 96 97 91 88 105 149 184 206 226 6 22 33 35 35 40 48 52 52 54 57 62 69 71 73 85 97 101 97 93 93 137 197 219 230 239 6 21 30 30 32 37 47 54 53 53 54 58 65 69 76 90 103 105 99 98 98 165 216 224 227 236 7 22 30 31 34 38 49 56 55 55 56 59 65 68 74 90 106 111 108 110 111 178 221 227 229 237 6 24 35 38 40 41 51 61 62 62 63 66 69 65 70 97 121 119 104 102 133 198 228 235 239 243 13 32 41 41 42 43 51 62 65 63 64 69 71 64 79 118 140 129 103 94 135 203 229 234 239 242 16 39 48 45 44 44 49 57 61 60 63 68 68 63 77 119 150 146 126 116 120 169 211 224 232 236 9 33 49 50 46 43 46 52 56 59 63 64 62 58 64 111 157 165 146 130 120 126 157 181 205 221 8 29 45 46 43 41 43 47 52 59 67 68 63 60 64 105 157 174 160 138 126 115 102 102 143 163 87 119 115 109 103 92 86 83 85 88 101 110 130 150 162 157 148 146 146 156 161 156 162 180 188 156 119 125 126 119 111 104 98 98 102 108 117 130 150 167 174 174 172 168 166 168 168 170 176 186 187 178 113 123 126 120 112 108 106 108 112 119 130 150 170 180 181 178 175 171 171 173 178 183 186 187 180 166 107 117 120 116 111 108 108 111 114 123 144 166 180 183 179 173 170 172 177 180 182 182 179 176 166 149 103 113 115 112 111 109 111 115 120 134 159 178 187 186 180 173 171 174 177 178 175 170 163 155 148 138 99 108 112 113 113 110 112 117 123 141 166 181 188 187 182 177 174 174 175 172 165 154 145 136 131 133 100 108 112 114 114 111 112 114 120 138 162 178 185 186 186 185 180 177 176 171 162 151 138 122 119 129 97 107 112 115 115 112 111 110 114 130 154 172 180 185 189 189 182 176 174 170 164 159 148 128 118 122 94 107 115 116 115 113 111 108 110 126 151 168 176 180 185 186 180 175 173 171 168 167 163 149 129 117 85 102 111 112 111 107 105 105 109 125 148 163 170 175 178 178 175 173 172 171 171 171 171 164 149 144 82 98 105 105 104 101 100 103 110 125 145 158 168 173 175 173 172 172 171 170 170 169 171 171 173 186 80 95 101 100 98 97 97 100 111 125 138 148 161 170 173 171 171 171 167 164 160 157 162 174 188 202 81 96 100 96 95 93 95 104 118 128 132 138 149 161 168 168 167 164 158 153 147 142 153 174 187 196 82 96 99 95 93 91 98 112 126 130 129 131 138 151 161 164 164 159 152 147 140 136 148 167 172 177 82 95 100 97 93 91 101 117 128 129 127 126 130 141 155 160 162 158 152 144 136 130 139 153 154 167 79 93 101 101 98 99 110 120 125 122 118 119 123 135 149 155 154 151 148 139 125 114 125 145 152 191 72 88 100 104 106 113 121 125 123 116 111 113 122 136 146 146 140 137 137 130 122 123 146 174 192 226 71 87 99 103 110 119 124 123 119 113 110 111 124 140 146 140 132 129 130 129 138 163 193 216 229 242 72 87 97 101 106 112 117 117 115 112 109 109 122 141 149 144 135 132 132 135 159 198 225 235 241 245 70 86 96 99 100 103 108 112 112 111 107 106 120 140 150 148 141 138 136 143 173 216 236 240 240 244 69 85 97 99 101 101 106 112 114 112 108 106 115 128 140 148 150 151 154 165 189 223 238 241 240 244 65 84 99 103 104 103 109 117 119 117 114 113 112 114 130 154 165 163 168 190 213 233 241 242 243 244 65 86 101 105 106 104 108 115 117 116 115 117 115 115 139 167 176 169 174 201 222 236 242 243 242 243 74 96 108 108 106 101 103 109 118 122 124 124 120 119 143 172 182 177 184 201 209 223 236 239 238 237 79 99 111 109 103 98 98 105 118 130 135 133 129 131 148 175 188 186 186 190 187 192 209 219 222 225 64 97 106 103 98 94 93 97 110 129 141 142 140 147 160 177 191 190 181 175 170 163 162 171 188 182 66 87 88 84 78 73 69 69 71 76 84 93 111 129 136 135 133 132 131 131 129 127 127 132 137 111 85 88 89 86 81 77 75 75 78 84 92 104 122 135 138 136 135 135 135 134 131 128 127 130 131 127 85 88 90 87 84 81 81 82 84 90 102 121 137 141 139 136 136 137 138 136 132 126 123 122 118 111 84 86 89 87 85 84 84 85 87 96 115 133 142 142 138 136 136 138 138 135 128 121 116 113 108 102 81 85 88 88 87 86 87 90 92 106 127 140 144 142 139 137 137 137 134 130 124 117 110 104 101 98 82 85 88 88 88 87 88 90 96 112 131 139 142 143 141 138 135 133 130 126 121 114 106 98 94 96 84 87 90 90 88 86 86 87 94 109 126 134 140 143 142 138 134 132 129 126 124 120 109 94 90 95 83 87 91 89 86 84 83 83 88 101 119 132 139 143 142 137 133 132 131 131 132 134 125 107 94 92 81 86 91 87 81 79 78 78 81 95 116 132 140 142 140 136 133 133 134 135 138 143 142 129 107 92 77 83 87 82 76 74 73 73 76 93 117 134 140 139 137 135 134 136 136 137 141 146 148 142 130 115 76 80 82 76 72 71 71 71 75 92 115 130 136 137 136 134 136 137 137 137 139 141 142 144 146 142 74 78 78 72 69 69 69 72 80 96 110 118 124 132 135 135 136 135 131 130 128 125 126 134 141 146 76 78 76 69 67 67 70 79 92 103 106 105 110 123 131 133 132 126 118 113 108 104 108 118 123 131 76 79 77 70 67 67 74 88 101 104 100 95 97 111 124 129 127 115 101 94 88 85 91 103 107 115 76 79 79 73 69 69 79 95 103 102 93 86 87 100 118 126 123 108 91 83 78 75 83 96 101 116 73 78 79 75 74 79 90 99 102 95 85 80 81 96 115 122 115 99 86 79 74 72 84 104 109 141 68 74 79 78 82 92 101 103 99 90 81 77 84 102 116 114 101 88 81 77 76 88 114 135 141 175 67 72 78 80 88 97 100 98 93 86 79 77 89 109 116 105 90 82 80 80 95 130 158 168 177 198 68 73 78 81 86 90 90 87 85 83 78 75 90 112 118 106 89 82 81 86 121 165 186 190 196 208 66 72 79 81 82 82 81 81 83 82 77 74 90 113 121 109 92 84 83 94 140 183 199 201 202 209 65 71 79 82 82 80 79 82 84 82 77 74 82 98 109 109 101 97 102 122 159 191 204 205 204 207 61 70 80 82 82 80 81 84 86 84 81 77 75 81 97 109 112 111 127 161 186 199 206 207 204 204 60 69 79 82 82 79 79 80 82 82 82 81 79 83 100 115 119 118 139 178 197 204 207 206 201 200 68 75 82 83 81 76 74 77 85 91 92 90 86 89 107 123 126 126 144 170 181 189 198 199 192 188 74 80 85 82 77 73 71 75 89 101 104 102 100 106 121 133 134 133 141 150 149 155 170 177 173 170 59 81 82 78 74 70 68 69 81 100 110 111 112 123 135 140 138 134 131 127 121 119 127 138 145 126 0 0 0 0 0 0 0 0 0 0 0 0 0 0 0 0 0 0 0 0 0 0 0 0 0 0 0 0 0 0 0 0 0 0 0 0 0 0 0 0 0 0 0 0 0 0 0 0 0 0 0 0 0 0 0 0 0 0 0 0 0 0 0 0 0 0 0 0 0 0 0 0 0 0 0 0 0 0 0 0 0 0 0 0 0 0 0 0 0 0 0 0 0 0 0 0 0 0 0 0 0 0 0 0 0 0 0 0 0 0 0 0 0 0 0 0 0 0 0 0 0 0 0 0 0 0 0 0 0 0 0 0 0 0 0 0 0 0 0 0 0 0 0 0 0 0 0 0 0 0 0 0 0 0 0 0 0 0 0 0 0 0 0 0 0 0 0 0 0 0 0 0 0 0 0 0 0 0 0 0 0 0 0 0 0 0 0 0 0 0 0 0 0 0 0 0 0 0 0 0 0 0 0 0 0 0 0 0 0 0 0 0 0 0 0 0 0 0 0 0 0 0 0 0 0 0 0 0 0 0 0 0 0 0 0 0 0 0 0 0 0 0 0 0 0 0 0 0 0 0 0 0 0 0 0 0 0 0 0 0 0 0 0 0 0 0 0 0 0 0 0 0 0 0 0 0 0 0 0 0 0 0 0 0 0 0 0 0 0 0 0 0 0 0 0 0 0 0 0 0 0 0 0 0 0 0 0 0 0 0 0 0 0 0 0 0 0 0 0 0 0 0 0 0 0 0 0 0 0 0 0 0 0 0 0 0 0 0 0 0 0 0 0 0 0 0 0 0 0 0 0 0 0 0 0 0 0 0 0 0 0 0 0 0 0 0 0 0 0 0 0 0 0 0 0 0 0 0 0 0 0 0 0 0 0 0 0 0 0 0 0 0 0 0 0 0 0 0 0 0 0 0 0 0 0 0 0 0 0 0 0 0 0 0 0 0 0 0 0 0 0 0 0 0 0 0 0 0 0 0 0 0 0 0 0 0 0 0 0 0 0 0 0 0 0 0 0 0 0 0 0 0 0 0 0 0 0 0 0 0 0 0 0 0 0 0 0 0 0 0 0 0 0 0 0 0 0 0 0 0 0 0 0 0 0 0 0 0 0 0 0 0 0 0 0 0 0 0 0 0 0 0 0 0 0 0 0 0 0 0 0 0 0 0 0 0 0 0 0 0 0 0 0 0 0 0 0 0 0 0 0 0 0 0 0 0 0 0 0 0 0 0 0 0 0 0 0 0 0 0 0 0 0 0 0 0 0 0 0 0 0 0 0 0 0 0 0 0 0 0 0 0 0 0 0 0 0 0 0 0 0 0 0 0 0 0 0 0 0 0 0 0 0 0 0 0 0 0 0 0 0 0 0 0 0 0 0 0 0 0 0 0 0 0 0 0 0 0 0 0 0 0 0 0 0 0 0 0 0 0 0 0 0 0 0 0 0 0 0 0 0 0 0 0 0 0 0 0 0 0 0 0 0 0 0 0 0 0 0 0 0 0 0 0 0 0 0 0 0 0 0 0 0 0 0 0 
</DataArray>
<DataArray Name="HRRPUV" NumberOfComponents="1" type="UInt8" format="ascii">