<?xml version="1.0"?>
<VTKFile type="PolyData" version="1.0" byte_order="LittleEndian" header_type="UInt64">
<PolyData>
<Piece NumberOfPoints="29" NumberOfVerts="0" NumberOfLines="0" NumberOfPolys="0">
    <Points>
        <DataArray type="Float32" NumberOfComponents="3" format="ascii">
        15.0701 16.7649 3.2534 15.5223 18.4976 2.3343 15.3968 19.0363 2.6560 15.4309 18.8733 2.4949 15.6353 17.9284 2.9543 16.0234 16.5244 1.8962 17.3348 19.8382 6.9222 16.1978 16.0070 1.4443 15.5729 17.2504 1.7341 16.1042 16.0222 1.7735 15.0333 18.9466 3.9832 16.7024 15.3116 2.6375 16.0216 16.7196 4.1381 15.5790 18.1206 2.5991 15.8100 17.9052 3.3903 16.1177 17.1677 2.9979 15.8125 16.7142 2.8033 17.6777 21.0604 7.3160 15.9143 17.6595 2.6791 15.3163 17.6334 2.6140 15.2457 17.8595 2.3176 15.2905 17.8840 3.8337 16.8952 19.4715 7.0559 16.3851 19.0879 7.1797 16.2671 22.9047 7.5357 17.6757 18.3162 7.3108 16.5001 21.3801 8.1067 16.0867 19.5590 7.4516 16.7521 23.1971 7.4858 
        </DataArray>
    </Points>
    <PointData>
        <DataArray type="Float32" Name="tag" format="ascii">
            171331.0000 213979.0000 214347.0000 223655.0000 223707.0000 223787.0000 225299.0000 226115.0000 227467.0000 234087.0000 234627.0000 235671.0000 238979.0000 239003.0000 240699.0000 241015.0000 241075.0000 242051.0000 242395.0000 243987.0000 248655.0000 252275.0000 269055.0000 296155.0000 309103.0000 334451.0000 342379.0000 360999.0000 361327.0000 
         </DataArray>
    </PointData>
</Piece>
</PolyData>
</VTKFile>