<?xml version="1.0"?>
<VTKFile type="ImageData" version="1.0" byte_order="LittleEndian" header_type="UInt64">
<ImageData WholeExtent="25 50 25 50 1 1"
 Origin="15.0000 15.0000 0.0000" Spacing="0.6000 0.6000 0.6000">
<Piece Extent="25 50 25 50 1 1">
<PointData>
<DataArray Name="TEMPERATURE" NumberOfComponents="1" type="Float32" format="ascii">
77.2 97.6 88.1 79.4 65.0 59.2 53.7 46.5 44.0 40.1 35.6 33.3 31.4 30.6 30.5 30.5 30.1 29.6 28.6 27.7 27.2 27.1 27.4 27.8 27.1 26.1 78.9 87.7 83.3 78.4 67.7 63.9 58.2 48.1 41.8 36.4 33.6 32.4 31.8 31.6 31.2 30.6 29.5 28.5 27.7 27.2 26.9 26.9 27.2 27.6 27.2 26.3 58.9 66.6 64.1 61.7 52.5 53.1 51.8 43.4 38.8 33.6 30.9 31.7 33.3 33.5 32.4 30.9 29.1 27.7 27.1 26.9 26.8 26.9 27.2 27.6 27.3 26.5 46.6 47.6 41.0 41.5 37.6 38.9 40.4 38.4 37.0 32.3 30.1 31.9 34.2 34.0 32.4 30.4 28.5 27.3 26.7 26.7 26.8 27.2 27.5 27.9 27.5 26.5 43.9 41.8 32.6 32.9 33.2 33.8 35.1 36.5 36.4 33.2 32.4 33.9 34.3 33.1 31.3 29.4 27.9 27.0 26.6 26.7 27.2 27.8 28.1 28.5 27.6 26.1 40.3 39.0 31.9 32.4 33.1 33.9 35.2 36.5 37.6 37.0 36.9 35.8 33.6 31.8 30.1 28.5 27.5 26.8 26.5 26.8 27.7 28.6 28.9 28.9 27.1 25.2 35.1 34.4 31.5 33.1 34.0 35.0 36.3 37.1 38.9 39.8 38.1 34.2 31.7 30.7 29.1 27.8 27.3 26.9 26.6 27.2 28.6 29.6 29.6 28.8 26.2 24.0 34.2 33.1 33.1 35.1 36.3 35.9 35.3 35.6 36.9 36.6 33.6 30.9 30.6 29.9 28.2 27.5 27.6 27.3 27.2 28.3 30.0 30.8 30.0 28.3 25.4 23.2 39.3 37.7 38.5 40.1 41.1 37.5 33.0 31.9 31.6 30.4 29.1 29.5 30.1 28.8 27.7 28.0 28.6 28.3 28.4 29.8 31.5 31.6 29.8 27.8 25.1 23.0 47.9 45.5 46.0 47.8 46.3 39.8 33.5 30.2 28.1 27.3 28.2 29.5 29.3 28.3 28.2 29.4 30.2 29.7 29.8 31.3 32.3 31.6 29.6 27.8 25.3 23.3 53.9 50.2 50.0 52.9 48.6 40.7 35.5 31.3 29.0 28.8 29.2 29.7 29.7 29.5 30.2 31.2 31.1 30.4 30.9 32.1 32.4 31.7 29.9 28.1 25.7 23.7 54.4 50.0 48.8 51.6 46.7 39.5 36.4 33.5 32.5 31.7 30.4 30.6 31.5 31.5 31.7 31.3 30.4 30.4 31.7 32.9 33.0 32.4 30.5 28.5 26.2 24.3 53.4 50.0 46.6 46.5 42.8 38.0 36.8 35.5 34.5 32.5 30.9 32.2 33.4 32.6 31.6 30.4 30.1 31.4 32.9 33.9 33.8 33.1 30.7 28.6 26.6 24.8 50.9 51.2 48.1 44.2 40.0 36.7 37.0 36.8 34.2 32.3 32.5 34.2 34.4 32.8 31.5 30.8 31.4 33.1 34.4 34.9 34.7 33.7 30.9 28.7 27.0 25.2 47.3 50.8 50.4 44.6 37.6 33.2 35.1 36.4 34.2 34.4 35.9 36.5 34.7 32.8 32.0 31.9 32.6 34.2 35.0 35.1 34.5 33.0 30.5 28.7 27.0 25.1 46.9 49.2 48.8 41.9 33.7 29.1 30.8 33.7 34.9 37.5 38.5 37.1 34.3 32.5 32.4 32.6 33.1 34.3 34.5 34.0 32.9 31.1 29.3 28.3 26.7 25.0 47.5 46.4 43.3 35.8 29.8 27.4 28.3 31.7 36.2 40.7 40.3 36.2 32.6 31.4 31.7 32.1 32.5 32.9 32.6 31.8 30.8 29.4 28.5 27.9 26.5 24.9 44.9 41.7 37.0 31.0 28.5 28.4 29.8 33.4 38.8 43.9 42.1 35.3 30.7 29.6 30.2 31.0 31.3 31.2 30.4 29.5 28.7 28.1 27.8 27.4 26.4 25.3 37.6 35.1 31.9 29.1 29.9 31.6 34.2 37.8 41.8 45.0 41.1 33.0 28.4 27.8 28.6 29.3 29.5 29.3 28.7 28.0 27.5 27.4 27.3 27.1 26.3 25.4 31.1 30.1 28.6 28.4 31.0 34.8 38.9 41.3 42.1 42.1 36.1 28.9 26.4 26.5 27.1 27.5 27.5 27.4 27.2 26.9 26.7 26.8 26.9 26.9 26.3 25.5 29.6 29.4 28.2 28.3 30.6 36.1 42.0 42.2 39.1 35.9 30.0 25.8 25.4 25.7 25.9 26.1 26.3 26.4 26.4 26.2 26.2 26.5 26.6 26.8 26.3 25.3 30.2 30.3 29.9 29.3 29.8 35.2 41.9 40.7 34.8 30.0 26.1 24.7 25.2 25.7 25.6 25.7 26.5 26.9 26.5 26.1 26.1 26.4 26.4 26.7 26.2 25.0 30.0 30.5 30.6 29.0 27.5 32.0 39.3 37.9 30.8 26.5 24.8 24.8 25.4 26.1 26.2 26.5 27.1 27.2 26.5 25.9 25.9 26.1 25.9 26.0 25.5 24.4 29.6 30.0 29.7 27.3 25.1 28.1 34.7 34.1 28.7 26.7 26.5 26.3 26.1 26.4 26.6 27.2 27.6 27.3 26.3 25.7 25.8 25.8 25.4 25.3 24.7 23.6 30.2 30.5 29.2 26.5 24.3 24.9 28.2 29.3 28.5 28.5 27.7 26.2 25.1 25.1 25.6 27.0 27.7 26.9 25.7 25.2 25.1 24.8 24.5 24.3 23.6 22.6 30.5 30.8 29.0 26.1 23.8 23.4 24.6 26.6 28.4 28.9 27.0 24.5 23.4 23.7 24.5 26.3 26.9 25.7 24.6 24.3 24.2 23.7 23.6 23.3 22.5 21.2 
</DataArray>
</PointData>
</Piece>
</ImageData>
</VTKFile>
