<?xml version="1.0"?>
<VTKFile type="ImageData" version="1.0" byte_order="LittleEndian" header_type="UInt64">
<ImageData WholeExtent="25 50 25 50 0 15"
 Origin="15.0000 15.0000 0.0000" Spacing="0.6000 0.6000 0.6000">
<Piece Extent="25 50 25 50 0 15">
<PointData>
<DataArray Name="TEMPERATURE" NumberOfComponents="1" type="Float32" format="ascii">
23.2 25.2 26.3 27.2 28.1 29.3 29.5 27.8 26.0 25.0 24.3 23.6 23.1 22.7 22.3 22.0 21.7 21.5 21.2 21.0 20.9 20.7 20.5 20.3 20.2 20.1 23.7 24.2 25.0 25.7 26.5 27.2 27.2 26.2 25.0 24.3 23.7 23.2 22.8 22.4 22.1 21.8 21.5 21.3 21.1 20.9 20.8 20.6 20.5 20.3 20.2 20.1 23.2 23.6 24.2 24.8 25.0 25.4 25.7 25.3 24.4 23.8 23.3 22.9 22.6 22.2 21.9 21.7 21.4 21.2 21.0 20.9 20.7 20.6 20.4 20.3 20.2 20.1 22.8 23.1 23.5 23.8 24.1 24.6 24.8 24.5 23.9 23.4 23.0 22.6 22.3 22.0 21.8 21.6 21.3 21.2 21.0 20.8 20.7 20.5 20.4 20.3 20.2 20.1 22.4 22.6 22.9 23.2 23.5 23.9 24.0 23.9 23.5 23.0 22.6 22.3 22.1 21.8 21.6 21.4 21.3 21.1 20.9 20.8 20.6 20.5 20.4 20.3 20.1 20.1 22.1 22.2 22.5 22.8 23.0 23.1 23.3 23.3 23.1 22.7 22.4 22.1 21.9 21.7 21.5 21.3 21.1 21.0 20.9 20.7 20.6 20.5 20.4 20.3 20.1 20.1 21.8 21.9 22.2 22.4 22.5 22.6 22.7 22.7 22.6 22.4 22.2 21.9 21.7 21.5 21.3 21.2 21.0 20.9 20.8 20.7 20.6 20.5 20.3 20.2 20.1 20.1 21.5 21.6 21.8 22.0 22.1 22.2 22.3 22.3 22.2 22.1 22.0 21.8 21.6 21.4 21.2 21.1 20.9 20.8 20.7 20.6 20.5 20.4 20.3 20.2 20.1 20.1 21.3 21.4 21.6 21.8 21.9 21.9 21.9 21.9 21.9 21.8 21.7 21.6 21.5 21.3 21.1 21.0 20.9 20.8 20.7 20.6 20.5 20.4 20.3 20.2 20.1 20.1 21.1 21.2 21.4 21.6 21.6 21.6 21.6 21.7 21.7 21.6 21.5 21.5 21.4 21.2 21.0 20.9 20.8 20.7 20.6 20.5 20.4 20.4 20.3 20.2 20.1 20.1 21.0 21.1 21.2 21.3 21.4 21.4 21.4 21.4 21.5 21.4 21.3 21.3 21.3 21.2 21.0 20.8 20.7 20.7 20.6 20.5 20.4 20.3 20.3 20.2 20.1 20.1 20.9 21.0 21.1 21.2 21.2 21.2 21.2 21.2 21.3 21.3 21.1 21.1 21.1 21.1 21.0 20.8 20.7 20.6 20.5 20.4 20.4 20.3 20.2 20.2 20.1 20.1 20.8 20.8 21.0 21.0 21.0 21.0 21.0 21.0 21.1 21.1 21.0 20.9 20.9 20.9 20.9 20.8 20.6 20.6 20.5 20.4 20.3 20.3 20.2 20.1 20.1 20.1 20.7 20.7 20.8 20.9 20.9 20.9 20.8 20.9 21.0 21.0 20.9 20.8 20.8 20.8 20.8 20.8 20.6 20.5 20.4 20.4 20.3 20.3 20.2 20.1 20.1 20.0 20.6 20.6 20.7 20.8 20.8 20.7 20.7 20.8 20.8 20.8 20.8 20.7 20.6 20.6 20.7 20.7 20.6 20.5 20.4 20.4 20.3 20.2 20.2 20.1 20.1 20.0 20.5 20.6 20.6 20.7 20.6 20.6 20.6 20.6 20.7 20.7 20.7 20.6 20.6 20.5 20.6 20.6 20.6 20.5 20.4 20.3 20.3 20.2 20.2 20.1 20.1 20.0 20.4 20.5 20.6 20.6 20.6 20.5 20.5 20.6 20.6 20.6 20.6 20.5 20.5 20.5 20.5 20.5 20.5 20.5 20.4 20.3 20.2 20.2 20.1 20.1 20.0 20.0 20.4 20.4 20.5 20.5 20.5 20.4 20.4 20.5 20.5 20.5 20.5 20.4 20.4 20.4 20.4 20.4 20.4 20.4 20.4 20.3 20.2 20.2 20.1 20.1 20.0 20.0 20.3 20.4 20.4 20.4 20.4 20.4 20.4 20.4 20.4 20.4 20.4 20.4 20.3 20.3 20.3 20.3 20.3 20.3 20.4 20.3 20.2 20.2 20.1 20.1 20.0 20.0 20.3 20.3 20.3 20.3 20.3 20.3 20.3 20.3 20.3 20.4 20.4 20.3 20.3 20.3 20.3 20.3 20.3 20.3 20.3 20.3 20.2 20.2 20.1 20.1 20.0 20.0 20.2 20.2 20.3 20.3 20.3 20.2 20.2 20.2 20.3 20.3 20.3 20.3 20.2 20.2 20.2 20.2 20.2 20.2 20.2 20.2 20.2 20.2 20.1 20.1 20.0 20.0 20.2 20.2 20.2 20.2 20.2 20.2 20.2 20.2 20.2 20.2 20.2 20.2 20.2 20.2 20.2 20.2 20.2 20.2 20.2 20.2 20.2 20.2 20.1 20.1 20.0 20.0 20.1 20.1 20.1 20.1 20.1 20.1 20.1 20.1 20.1 20.2 20.2 20.1 20.1 20.1 20.1 20.1 20.1 20.1 20.1 20.1 20.1 20.1 20.1 20.1 20.0 20.0 20.1 20.1 20.1 20.1 20.1 20.1 20.1 20.1 20.1 20.1 20.1 20.1 20.1 20.1 20.1 20.1 20.1 20.1 20.1 20.1 20.1 20.1 20.1 20.1 20.0 20.0 20.0 20.0 20.0 20.0 20.0 20.0 20.1 20.1 20.1 20.1 20.1 20.0 20.0 20.0 20.0 20.0 20.0 20.0 20.0 20.0 20.0 20.0 20.0 20.0 20.0 20.0 20.0 20.0 20.0 20.0 20.0 20.0 20.0 20.0 20.0 20.0 20.0 20.0 20.0 20.0 20.0 20.0 20.0 20.0 20.0 20.0 20.0 20.0 20.0 20.0 20.0 20.0 23.3 25.4 26.7 29.2 30.7 31.5 32.5 29.9 26.6 25.3 24.5 23.8 23.2 22.7 22.3 22.0 21.7 21.5 21.2 21.0 20.8 20.6 20.5 20.3 20.2 20.1 23.8 24.4 25.2 26.0 27.0 28.1 28.0 26.7 25.4 24.6 23.9 23.4 22.9 22.5 22.1 21.8 21.5 21.3 21.1 20.9 20.7 20.6 20.4 20.3 20.2 20.1 23.3 23.8 24.4 24.9 25.4 26.0 26.2 25.5 24.6 24.0 23.5 23.0 22.6 22.3 21.9 21.7 21.4 21.2 21.0 20.8 20.7 20.5 20.4 20.3 20.1 20.1 22.9 23.2 23.6 23.9 24.3 24.8 25.1 24.7 24.0 23.5 23.0 22.7 22.4 22.0 21.8 21.5 21.3 21.1 21.0 20.8 20.6 20.5 20.4 20.3 20.1 20.1 22.5 22.6 22.9 23.3 23.6 24.1 24.3 24.0 23.6 23.1 22.7 22.4 22.1 21.8 21.6 21.4 21.2 21.1 20.9 20.7 20.6 20.5 20.4 20.2 20.1 20.1 22.1 22.2 22.5 22.8 23.1 23.4 23.5 23.4 23.1 22.8 22.4 22.1 21.9 21.6 21.5 21.3 21.1 21.0 20.8 20.7 20.6 20.5 20.3 20.2 20.1 20.1 21.8 21.9 22.1 22.4 22.6 22.7 22.8 22.8 22.7 22.5 22.2 21.9 21.7 21.5 21.3 21.1 21.0 20.9 20.8 20.6 20.5 20.4 20.3 20.2 20.1 20.1 21.5 21.6 21.8 22.0 22.2 22.3 22.3 22.3 22.3 22.2 22.0 21.8 21.6 21.3 21.2 21.0 20.9 20.8 20.7 20.6 20.5 20.4 20.3 20.2 20.1 20.1 21.3 21.4 21.6 21.8 21.9 21.9 22.0 22.0 22.0 21.8 21.8 21.7 21.5 21.2 21.1 21.0 20.8 20.7 20.6 20.5 20.4 20.4 20.3 20.2 20.1 20.1 21.1 21.2 21.4 21.5 21.6 21.6 21.6 21.7 21.7 21.6 21.5 21.5 21.4 21.2 21.0 20.9 20.8 20.7 20.6 20.5 20.4 20.3 20.3 20.2 20.1 20.1 21.0 21.1 21.2 21.3 21.4 21.4 21.4 21.4 21.5 21.4 21.3 21.3 21.3 21.1 20.9 20.8 20.7 20.6 20.5 20.5 20.4 20.3 20.2 20.2 20.1 20.0 20.8 20.9 21.1 21.1 21.2 21.2 21.2 21.2 21.3 21.2 21.1 21.1 21.1 21.1 20.9 20.8 20.6 20.6 20.5 20.4 20.3 20.3 20.2 20.1 20.1 20.0 20.7 20.8 20.9 21.0 21.0 21.0 21.0 21.0 21.1 21.1 21.0 20.9 20.9 20.9 20.9 20.7 20.6 20.5 20.4 20.4 20.3 20.3 20.2 20.1 20.1 20.0 20.6 20.7 20.8 20.8 20.9 20.9 20.8 20.9 20.9 20.9 20.9 20.8 20.7 20.8 20.8 20.7 20.6 20.5 20.4 20.4 20.3 20.2 20.2 20.1 20.1 20.0 20.5 20.6 20.7 20.7 20.7 20.7 20.7 20.7 20.8 20.8 20.7 20.6 20.6 20.6 20.7 20.7 20.6 20.5 20.4 20.3 20.3 20.2 20.2 20.1 20.1 20.0 20.5 20.5 20.6 20.6 20.6 20.6 20.6 20.6 20.7 20.7 20.6 20.6 20.5 20.5 20.5 20.6 20.6 20.5 20.4 20.3 20.2 20.2 20.1 20.1 20.0 20.0 20.4 20.4 20.5 20.5 20.5 20.5 20.5 20.5 20.6 20.6 20.6 20.5 20.4 20.4 20.4 20.5 20.5 20.5 20.4 20.3 20.2 20.2 20.1 20.1 20.0 20.0 20.3 20.4 20.4 20.5 20.5 20.4 20.4 20.4 20.5 20.5 20.5 20.4 20.4 20.4 20.4 20.4 20.4 20.4 20.4 20.3 20.2 20.2 20.1 20.1 20.0 20.0 20.3 20.3 20.4 20.4 20.4 20.3 20.3 20.4 20.4 20.4 20.4 20.3 20.3 20.3 20.3 20.3 20.3 20.3 20.3 20.3 20.2 20.2 20.1 20.1 20.0 20.0 20.2 20.3 20.3 20.3 20.3 20.3 20.3 20.3 20.3 20.3 20.3 20.3 20.3 20.2 20.2 20.2 20.2 20.3 20.3 20.3 20.2 20.2 20.1 20.1 20.0 20.0 20.2 20.2 20.2 20.3 20.2 20.2 20.2 20.2 20.3 20.3 20.3 20.2 20.2 20.2 20.2 20.2 20.2 20.2 20.2 20.2 20.2 20.2 20.1 20.1 20.0 20.0 20.1 20.2 20.2 20.2 20.2 20.2 20.2 20.2 20.2 20.2 20.2 20.2 20.2 20.1 20.1 20.1 20.1 20.1 20.1 20.1 20.2 20.2 20.1 20.1 20.0 20.0 20.1 20.1 20.1 20.1 20.1 20.1 20.1 20.1 20.1 20.1 20.1 20.1 20.1 20.1 20.1 20.1 20.1 20.1 20.1 20.1 20.1 20.1 20.1 20.1 20.0 20.0 20.1 20.1 20.1 20.1 20.1 20.1 20.1 20.1 20.1 20.1 20.1 20.1 20.1 20.1 20.1 20.1 20.1 20.1 20.1 20.1 20.1 20.1 20.1 20.1 20.0 20.0 20.0 20.0 20.0 20.0 20.0 20.0 20.0 20.0 20.0 20.0 20.0 20.0 20.0 20.0 20.0 20.0 20.0 20.0 20.0 20.0 20.0 20.0 20.0 20.0 20.0 20.0 20.0 20.0 20.0 20.0 20.0 20.0 20.0 20.0 20.0 20.0 20.0 20.0 20.0 20.0 20.0 20.0 20.0 20.0 20.0 20.0 20.0 20.0 20.0 20.0 20.0 20.0 23.5 25.9 28.2 34.8 38.1 37.4 37.9 33.4 28.0 26.1 25.1 24.2 23.5 22.9 22.4 22.1 21.7 21.5 21.2 21.0 20.8 20.6 20.5 20.3 20.2 20.1 24.0 24.8 25.6 26.6 28.0 29.7 29.8 27.7 26.2 25.2 24.4 23.7 23.1 22.6 22.2 21.8 21.6 21.3 21.1 20.9 20.7 20.5 20.4 20.3 20.1 20.1 23.5 24.1 24.6 25.2 26.0 27.1 27.3 26.2 25.1 24.4 23.7 23.2 22.7 22.4 22.0 21.7 21.4 21.2 21.0 20.8 20.6 20.5 20.3 20.2 20.1 20.1 23.0 23.4 23.8 24.2 24.7 25.4 25.7 25.1 24.3 23.7 23.2 22.8 22.4 22.1 21.8 21.5 21.3 21.1 20.9 20.8 20.6 20.5 20.3 20.2 20.1 20.1 22.6 22.8 23.0 23.4 23.9 24.5 24.7 24.3 23.7 23.3 22.8 22.4 22.1 21.9 21.6 21.4 21.2 21.0 20.9 20.7 20.6 20.4 20.3 20.2 20.1 20.1 22.2 22.4 22.5 23.0 23.4 23.8 23.9 23.6 23.2 22.9 22.5 22.1 21.9 21.7 21.5 21.3 21.1 20.9 20.8 20.6 20.5 20.4 20.3 20.2 20.1 20.0 21.9 22.1 22.3 22.6 22.9 23.0 23.1 23.0 22.7 22.6 22.3 21.9 21.7 21.5 21.3 21.1 21.0 20.8 20.7 20.6 20.5 20.4 20.3 20.2 20.1 20.0 21.7 21.9 22.1 22.4 22.4 22.4 22.5 22.4 22.3 22.2 22.1 21.8 21.5 21.3 21.1 21.0 20.9 20.7 20.6 20.5 20.4 20.3 20.3 20.2 20.1 20.0 21.5 21.8 22.1 22.3 22.1 22.0 22.0 22.0 22.0 21.9 21.8 21.7 21.4 21.2 21.0 20.9 20.8 20.7 20.6 20.5 20.4 20.3 20.2 20.2 20.1 20.0 21.4 21.7 22.0 22.1 21.8 21.7 21.7 21.7 21.7 21.6 21.5 21.5 21.4 21.1 20.9 20.8 20.7 20.6 20.5 20.4 20.4 20.3 20.2 20.1 20.1 20.0 21.1 21.4 21.7 21.8 21.5 21.4 21.4 21.4 21.4 21.3 21.3 21.3 21.2 21.1 20.9 20.7 20.6 20.6 20.5 20.4 20.3 20.3 20.2 20.1 20.1 20.0 20.9 21.2 21.6 21.5 21.2 21.1 21.2 21.2 21.2 21.2 21.0 21.0 21.1 21.1 20.9 20.7 20.6 20.5 20.4 20.4 20.3 20.2 20.2 20.1 20.1 20.0 20.8 21.2 21.4 21.2 21.0 21.0 21.0 21.0 21.1 21.0 20.9 20.8 20.9 20.9 20.9 20.7 20.6 20.5 20.4 20.3 20.3 20.2 20.2 20.1 20.1 20.0 20.7 21.0 21.0 20.9 20.8 20.8 20.8 20.8 20.9 20.9 20.8 20.7 20.7 20.7 20.8 20.7 20.6 20.4 20.4 20.3 20.2 20.2 20.1 20.1 20.0 20.0 20.6 20.7 20.6 20.7 20.7 20.7 20.7 20.7 20.7 20.7 20.7 20.6 20.6 20.6 20.6 20.7 20.6 20.4 20.3 20.3 20.2 20.2 20.1 20.1 20.0 20.0 20.4 20.5 20.5 20.5 20.6 20.6 20.6 20.6 20.6 20.6 20.6 20.5 20.5 20.5 20.5 20.6 20.6 20.5 20.3 20.3 20.2 20.2 20.1 20.1 20.0 20.0 20.3 20.3 20.4 20.5 20.5 20.5 20.5 20.5 20.5 20.5 20.5 20.4 20.4 20.4 20.4 20.4 20.5 20.5 20.4 20.3 20.2 20.1 20.1 20.1 20.0 20.0 20.3 20.3 20.4 20.4 20.4 20.4 20.4 20.4 20.4 20.4 20.4 20.4 20.3 20.3 20.3 20.3 20.4 20.4 20.4 20.3 20.2 20.1 20.1 20.1 20.0 20.0 20.2 20.2 20.3 20.3 20.3 20.3 20.3 20.3 20.4 20.4 20.3 20.3 20.3 20.3 20.3 20.2 20.3 20.3 20.3 20.3 20.2 20.1 20.1 20.1 20.0 20.0 20.2 20.2 20.2 20.3 20.3 20.3 20.2 20.3 20.3 20.3 20.3 20.2 20.2 20.2 20.2 20.2 20.2 20.2 20.3 20.3 20.2 20.1 20.1 20.1 20.0 20.0 20.1 20.2 20.2 20.2 20.2 20.2 20.2 20.2 20.2 20.2 20.2 20.2 20.2 20.2 20.2 20.2 20.2 20.2 20.2 20.2 20.2 20.2 20.1 20.1 20.0 20.0 20.1 20.1 20.2 20.2 20.2 20.1 20.1 20.1 20.2 20.2 20.2 20.1 20.1 20.1 20.1 20.1 20.1 20.1 20.1 20.1 20.1 20.1 20.1 20.1 20.0 20.0 20.1 20.1 20.1 20.1 20.1 20.1 20.1 20.1 20.1 20.1 20.1 20.1 20.1 20.1 20.1 20.1 20.1 20.1 20.1 20.1 20.1 20.1 20.1 20.1 20.0 20.0 20.1 20.1 20.1 20.1 20.1 20.1 20.1 20.1 20.1 20.1 20.1 20.1 20.1 20.1 20.1 20.0 20.0 20.1 20.1 20.1 20.0 20.1 20.1 20.0 20.0 20.0 20.0 20.0 20.0 20.0 20.0 20.0 20.0 20.0 20.0 20.0 20.0 20.0 20.0 20.0 20.0 20.0 20.0 20.0 20.0 20.0 20.0 20.0 20.0 20.0 20.0 20.0 20.0 20.0 20.0 20.0 20.0 20.0 20.0 20.0 20.0 20.0 20.0 20.0 20.0 20.0 20.0 20.0 20.0 20.0 20.0 20.0 20.0 20.0 20.0 20.0 20.0 20.0 23.7 26.2 29.1 38.7 43.1 42.1 45.0 43.5 34.6 27.1 25.6 24.5 23.7 23.1 22.6 22.2 21.9 21.5 21.3 21.1 20.9 20.7 20.5 20.3 20.1 20.1 24.2 25.1 26.0 27.7 29.4 31.0 31.4 29.1 26.9 25.7 24.8 24.0 23.3 22.8 22.4 22.0 21.7 21.4 21.2 20.9 20.7 20.6 20.4 20.3 20.1 20.1 23.6 24.3 24.9 25.6 26.8 28.0 28.0 26.7 25.5 24.7 24.0 23.5 22.9 22.5 22.1 21.8 21.5 21.3 21.1 20.9 20.7 20.5 20.3 20.2 20.1 20.1 23.1 23.6 24.1 24.6 25.4 25.9 26.1 25.5 24.6 24.0 23.4 23.0 22.6 22.2 21.9 21.6 21.4 21.2 21.0 20.8 20.6 20.5 20.3 20.2 20.1 20.0 22.7 23.1 23.3 23.7 24.3 24.8 24.9 24.5 23.9 23.4 22.9 22.5 22.2 21.9 21.7 21.5 21.2 21.0 20.9 20.7 20.6 20.4 20.3 20.2 20.1 20.0 22.3 22.7 22.9 23.3 23.7 24.0 24.1 23.8 23.4 23.0 22.6 22.2 21.9 21.7 21.5 21.3 21.1 21.0 20.8 20.7 20.5 20.4 20.3 20.2 20.1 20.0 22.1 22.5 22.8 23.1 23.1 23.2 23.3 23.1 22.8 22.6 22.3 22.0 21.7 21.5 21.3 21.1 21.0 20.9 20.7 20.6 20.5 20.4 20.3 20.2 20.1 20.0 22.1 22.7 23.0 23.0 22.7 22.6 22.7 22.6 22.4 22.3 22.1 21.8 21.5 21.3 21.1 21.0 20.9 20.8 20.6 20.5 20.4 20.3 20.2 20.2 20.1 20.0 22.2 22.9 23.3 23.0 22.3 22.1 22.1 22.1 22.0 21.9 21.8 21.7 21.4 21.2 21.0 20.9 20.8 20.7 20.6 20.5 20.4 20.3 20.2 20.1 20.1 20.0 21.8 22.2 22.5 22.6 22.0 21.8 21.7 21.7 21.7 21.6 21.5 21.5 21.4 21.1 20.9 20.8 20.7 20.6 20.5 20.4 20.3 20.3 20.2 20.1 20.1 20.0 21.3 21.3 21.6 22.1 21.7 21.4 21.4 21.5 21.4 21.3 21.3 21.3 21.2 21.1 20.9 20.7 20.6 20.5 20.5 20.4 20.3 20.2 20.2 20.1 20.1 20.0 21.1 21.1 21.4 21.7 21.3 21.2 21.2 21.2 21.2 21.1 21.0 21.0 21.1 21.1 20.9 20.7 20.6 20.5 20.4 20.3 20.3 20.2 20.2 20.1 20.1 20.0 20.9 21.1 21.2 21.3 21.0 21.0 21.0 21.0 21.0 21.0 20.9 20.8 20.9 20.9 20.9 20.7 20.6 20.5 20.4 20.3 20.3 20.2 20.1 20.1 20.0 20.0 20.9 20.9 20.9 20.9 20.8 20.8 20.8 20.9 20.9 20.8 20.7 20.7 20.7 20.7 20.8 20.7 20.6 20.4 20.4 20.3 20.2 20.2 20.1 20.1 20.0 20.0 20.7 20.6 20.5 20.7 20.7 20.7 20.7 20.7 20.7 20.7 20.6 20.6 20.5 20.6 20.6 20.6 20.5 20.4 20.3 20.3 20.2 20.2 20.1 20.1 20.0 20.0 20.4 20.4 20.4 20.5 20.6 20.6 20.6 20.6 20.6 20.6 20.5 20.5 20.5 20.4 20.5 20.5 20.5 20.4 20.3 20.2 20.2 20.1 20.1 20.1 20.0 20.0 20.3 20.3 20.4 20.4 20.5 20.5 20.5 20.5 20.5 20.5 20.5 20.4 20.4 20.4 20.4 20.4 20.4 20.4 20.3 20.3 20.2 20.1 20.1 20.1 20.0 20.0 20.2 20.3 20.3 20.4 20.4 20.4 20.4 20.4 20.4 20.4 20.4 20.3 20.3 20.3 20.3 20.3 20.3 20.4 20.4 20.3 20.2 20.1 20.1 20.1 20.0 20.0 20.2 20.2 20.3 20.3 20.3 20.3 20.3 20.3 20.4 20.4 20.3 20.3 20.3 20.2 20.2 20.2 20.2 20.3 20.3 20.3 20.2 20.1 20.1 20.1 20.0 20.0 20.2 20.2 20.2 20.3 20.3 20.2 20.2 20.3 20.3 20.3 20.3 20.2 20.2 20.2 20.2 20.2 20.2 20.2 20.2 20.2 20.2 20.1 20.1 20.0 20.0 20.0 20.1 20.1 20.2 20.2 20.2 20.2 20.2 20.2 20.2 20.2 20.2 20.2 20.2 20.2 20.1 20.1 20.1 20.1 20.2 20.2 20.2 20.1 20.1 20.0 20.0 20.0 20.1 20.1 20.1 20.2 20.2 20.1 20.1 20.1 20.2 20.2 20.2 20.1 20.1 20.1 20.1 20.1 20.1 20.1 20.1 20.1 20.1 20.1 20.1 20.1 20.0 20.0 20.1 20.1 20.1 20.1 20.1 20.1 20.1 20.1 20.1 20.1 20.1 20.1 20.1 20.1 20.1 20.1 20.1 20.1 20.1 20.1 20.1 20.1 20.1 20.1 20.0 20.0 20.0 20.1 20.1 20.1 20.1 20.1 20.1 20.1 20.1 20.1 20.1 20.1 20.1 20.1 20.0 20.0 20.0 20.0 20.0 20.0 20.0 20.0 20.0 20.0 20.0 20.0 20.0 20.0 20.0 20.0 20.0 20.0 20.0 20.0 20.0 20.0 20.0 20.0 20.0 20.0 20.0 20.0 20.0 20.0 20.0 20.0 20.0 20.0 20.0 20.0 20.0 20.0 20.0 20.0 20.0 20.0 20.0 20.0 20.0 20.0 20.0 20.0 20.0 20.0 20.0 20.0 20.0 20.0 20.0 20.0 20.0 20.0 20.0 20.0 20.0 20.0 20.0 20.0 23.8 26.8 29.6 39.9 44.3 43.6 55.8 59.5 41.7 27.6 25.8 24.8 24.0 23.4 22.9 22.4 22.0 21.7 21.4 21.1 20.9 20.7 20.5 20.3 20.2 20.1 24.2 25.2 26.2 28.5 30.2 31.3 33.0 31.0 27.5 25.9 24.9 24.2 23.6 23.1 22.6 22.2 21.9 21.5 21.3 21.0 20.8 20.6 20.4 20.3 20.1 20.1 23.6 24.3 25.1 26.1 27.3 28.3 28.5 27.1 25.8 24.9 24.2 23.6 23.2 22.7 22.3 22.0 21.7 21.4 21.2 21.0 20.7 20.6 20.4 20.3 20.1 20.1 23.1 23.7 24.4 25.3 26.1 26.4 26.5 25.7 24.8 24.1 23.6 23.1 22.7 22.4 22.1 21.8 21.5 21.3 21.1 20.9 20.7 20.5 20.4 20.2 20.1 20.1 22.7 23.2 23.7 24.3 24.8 25.0 25.1 24.7 24.1 23.6 23.1 22.7 22.4 22.1 21.8 21.6 21.3 21.1 21.0 20.8 20.6 20.5 20.3 20.2 20.1 20.1 22.4 23.0 23.5 23.8 23.9 24.1 24.2 23.9 23.5 23.1 22.7 22.4 22.1 21.9 21.7 21.4 21.2 21.1 20.9 20.7 20.6 20.4 20.3 20.2 20.1 20.0 22.4 23.1 23.6 23.6 23.4 23.4 23.5 23.2 22.9 22.7 22.4 22.1 21.8 21.6 21.4 21.3 21.1 21.0 20.8 20.7 20.5 20.4 20.3 20.2 20.1 20.0 22.7 23.4 23.9 23.7 23.0 22.8 22.8 22.7 22.5 22.3 22.1 21.9 21.6 21.4 21.3 21.1 21.0 20.9 20.7 20.6 20.5 20.4 20.3 20.2 20.1 20.0 23.0 23.9 24.4 23.7 22.7 22.3 22.3 22.2 22.1 22.0 21.9 21.7 21.5 21.3 21.2 21.0 20.9 20.8 20.7 20.6 20.5 20.3 20.2 20.2 20.1 20.0 22.4 23.0 23.4 23.1 22.2 21.9 21.9 21.8 21.7 21.7 21.6 21.5 21.4 21.2 21.0 20.9 20.8 20.7 20.6 20.5 20.4 20.3 20.2 20.1 20.1 20.0 21.6 21.6 22.0 22.3 21.8 21.6 21.6 21.6 21.5 21.4 21.3 21.3 21.3 21.1 21.0 20.8 20.7 20.6 20.5 20.4 20.4 20.3 20.2 20.1 20.1 20.0 21.3 21.4 21.6 21.8 21.4 21.3 21.3 21.3 21.3 21.2 21.1 21.1 21.1 21.1 20.9 20.8 20.7 20.6 20.5 20.4 20.3 20.2 20.2 20.1 20.1 20.0 21.2 21.2 21.2 21.3 21.1 21.1 21.1 21.1 21.1 21.0 20.9 20.9 20.9 20.9 20.9 20.8 20.6 20.5 20.4 20.4 20.3 20.2 20.2 20.1 20.1 20.0 21.0 20.8 20.8 20.9 20.9 20.9 20.9 20.9 21.0 20.9 20.8 20.7 20.7 20.8 20.8 20.7 20.6 20.5 20.4 20.3 20.3 20.2 20.1 20.1 20.0 20.0 20.8 20.6 20.5 20.7 20.8 20.8 20.8 20.8 20.8 20.8 20.7 20.6 20.6 20.6 20.6 20.6 20.6 20.5 20.4 20.3 20.2 20.2 20.1 20.1 20.0 20.0 20.4 20.4 20.4 20.6 20.6 20.6 20.6 20.7 20.7 20.7 20.6 20.5 20.5 20.5 20.5 20.5 20.5 20.5 20.4 20.3 20.2 20.2 20.1 20.1 20.0 20.0 20.3 20.3 20.4 20.5 20.5 20.5 20.5 20.6 20.6 20.6 20.5 20.4 20.4 20.4 20.4 20.4 20.4 20.4 20.4 20.3 20.2 20.2 20.1 20.1 20.0 20.0 20.2 20.3 20.4 20.4 20.5 20.4 20.4 20.5 20.5 20.5 20.4 20.4 20.4 20.4 20.4 20.4 20.4 20.4 20.3 20.3 20.2 20.2 20.1 20.1 20.0 20.0 20.2 20.2 20.3 20.4 20.4 20.3 20.3 20.4 20.4 20.4 20.4 20.3 20.3 20.3 20.3 20.3 20.3 20.3 20.3 20.3 20.2 20.1 20.1 20.1 20.0 20.0 20.2 20.2 20.2 20.3 20.3 20.3 20.3 20.3 20.3 20.3 20.3 20.2 20.2 20.2 20.2 20.2 20.2 20.2 20.2 20.2 20.2 20.1 20.1 20.1 20.0 20.0 20.1 20.2 20.2 20.2 20.2 20.2 20.2 20.2 20.3 20.3 20.2 20.2 20.2 20.2 20.2 20.2 20.2 20.2 20.2 20.2 20.2 20.1 20.1 20.1 20.0 20.0 20.1 20.1 20.2 20.2 20.2 20.1 20.1 20.2 20.2 20.2 20.2 20.1 20.1 20.1 20.1 20.1 20.1 20.1 20.1 20.1 20.1 20.1 20.1 20.1 20.0 20.0 20.1 20.1 20.1 20.1 20.1 20.1 20.1 20.1 20.1 20.1 20.1 20.1 20.1 20.1 20.1 20.1 20.1 20.1 20.1 20.1 20.1 20.1 20.1 20.1 20.0 20.0 20.1 20.1 20.1 20.1 20.1 20.1 20.1 20.1 20.1 20.1 20.1 20.1 20.1 20.1 20.1 20.1 20.1 20.1 20.1 20.0 20.0 20.0 20.0 20.0 20.0 20.0 20.0 20.0 20.0 20.0 20.0 20.0 20.0 20.0 20.0 20.0 20.0 20.0 20.0 20.0 20.0 20.0 20.0 20.0 20.0 20.0 20.0 20.0 20.0 20.0 20.0 20.0 20.0 20.0 20.0 20.0 20.0 20.0 20.0 20.0 20.0 20.0 20.0 20.0 20.0 20.0 20.0 20.0 20.0 20.0 20.0 20.0 20.0 20.0 20.0 20.0 20.0 20.0 23.8 27.0 30.0 39.0 42.8 43.4 65.1 68.7 41.8 27.8 26.2 25.2 24.3 23.6 23.1 22.6 22.1 21.8 21.4 21.2 20.9 20.7 20.5 20.3 20.2 20.1 24.2 25.1 26.2 28.1 29.6 30.8 33.2 31.5 27.6 26.1 25.2 24.5 23.8 23.2 22.8 22.3 22.0 21.6 21.3 21.0 20.8 20.7 20.5 20.3 20.2 20.1 23.7 24.3 25.1 26.1 27.1 28.0 28.5 27.4 25.9 25.1 24.4 23.8 23.3 22.9 22.5 22.2 21.8 21.5 21.2 21.0 20.8 20.6 20.4 20.3 20.1 20.1 23.2 23.8 24.5 25.5 26.2 26.6 26.6 25.7 24.8 24.2 23.7 23.3 22.9 22.5 22.2 21.9 21.6 21.4 21.2 21.0 20.8 20.6 20.4 20.3 20.1 20.1 22.9 23.4 24.1 24.8 25.1 25.2 25.1 24.7 24.1 23.6 23.2 22.9 22.6 22.3 22.0 21.7 21.5 21.3 21.1 20.9 20.7 20.5 20.4 20.2 20.1 20.1 22.7 23.3 24.0 24.3 24.3 24.2 24.2 23.9 23.6 23.2 22.8 22.5 22.3 22.1 21.8 21.6 21.4 21.2 21.0 20.8 20.7 20.5 20.4 20.2 20.1 20.1 22.8 23.4 24.1 24.1 23.7 23.5 23.4 23.3 23.0 22.8 22.5 22.2 22.0 21.8 21.6 21.4 21.3 21.1 20.9 20.8 20.6 20.5 20.3 20.2 20.1 20.1 22.9 23.6 24.4 24.2 23.4 23.0 22.9 22.8 22.6 22.4 22.2 22.0 21.8 21.6 21.5 21.3 21.2 21.0 20.9 20.7 20.6 20.4 20.3 20.2 20.1 20.0 23.0 24.0 24.8 24.3 23.1 22.5 22.4 22.4 22.2 22.1 21.9 21.8 21.6 21.5 21.3 21.2 21.0 20.9 20.8 20.7 20.5 20.4 20.3 20.2 20.1 20.0 22.5 23.5 24.1 23.4 22.4 22.1 22.1 22.0 21.9 21.8 21.7 21.6 21.4 21.3 21.2 21.0 20.9 20.8 20.7 20.6 20.5 20.4 20.3 20.2 20.1 20.0 21.8 22.4 22.8 22.4 21.9 21.7 21.7 21.7 21.7 21.5 21.4 21.4 21.3 21.2 21.1 20.9 20.8 20.7 20.6 20.5 20.4 20.3 20.2 20.1 20.1 20.0 21.6 22.0 22.1 21.8 21.5 21.5 21.5 21.5 21.5 21.3 21.2 21.2 21.1 21.1 21.0 20.9 20.8 20.7 20.6 20.5 20.4 20.3 20.2 20.1 20.1 20.0 21.4 21.6 21.5 21.3 21.2 21.3 21.2 21.3 21.3 21.2 21.1 21.0 21.0 21.0 20.9 20.8 20.7 20.6 20.5 20.4 20.4 20.3 20.2 20.1 20.1 20.0 21.2 21.0 20.9 21.0 21.0 21.1 21.1 21.1 21.1 21.0 20.9 20.9 20.8 20.8 20.8 20.7 20.6 20.6 20.5 20.4 20.3 20.3 20.2 20.1 20.1 20.0 20.8 20.7 20.7 20.8 20.9 20.9 20.9 20.9 21.0 20.9 20.8 20.7 20.7 20.7 20.7 20.7 20.6 20.5 20.4 20.4 20.3 20.2 20.2 20.1 20.1 20.0 20.5 20.5 20.5 20.7 20.8 20.8 20.7 20.8 20.8 20.8 20.7 20.6 20.6 20.6 20.6 20.6 20.5 20.5 20.4 20.4 20.3 20.2 20.2 20.1 20.0 20.0 20.3 20.4 20.5 20.6 20.7 20.6 20.6 20.7 20.7 20.7 20.6 20.5 20.5 20.5 20.5 20.5 20.5 20.4 20.4 20.3 20.3 20.2 20.1 20.1 20.0 20.0 20.3 20.4 20.4 20.5 20.5 20.5 20.5 20.6 20.6 20.6 20.5 20.5 20.4 20.4 20.4 20.4 20.4 20.4 20.4 20.3 20.3 20.2 20.1 20.1 20.0 20.0 20.3 20.3 20.4 20.4 20.5 20.4 20.4 20.5 20.5 20.5 20.4 20.4 20.4 20.3 20.4 20.4 20.4 20.3 20.3 20.3 20.2 20.2 20.1 20.1 20.0 20.0 20.2 20.3 20.3 20.4 20.4 20.3 20.3 20.4 20.4 20.4 20.4 20.3 20.3 20.3 20.3 20.3 20.3 20.3 20.3 20.3 20.2 20.2 20.1 20.1 20.0 20.0 20.2 20.2 20.3 20.3 20.3 20.2 20.3 20.3 20.3 20.3 20.3 20.2 20.2 20.2 20.2 20.2 20.2 20.2 20.2 20.2 20.2 20.2 20.1 20.1 20.0 20.0 20.1 20.2 20.2 20.2 20.2 20.2 20.2 20.2 20.2 20.2 20.2 20.2 20.2 20.2 20.2 20.2 20.2 20.2 20.2 20.2 20.2 20.1 20.1 20.1 20.0 20.0 20.1 20.1 20.1 20.2 20.1 20.1 20.1 20.2 20.2 20.2 20.2 20.1 20.1 20.1 20.1 20.1 20.1 20.1 20.1 20.1 20.1 20.1 20.1 20.1 20.0 20.0 20.1 20.1 20.1 20.1 20.1 20.1 20.1 20.1 20.1 20.1 20.1 20.1 20.1 20.1 20.1 20.1 20.1 20.1 20.1 20.1 20.1 20.1 20.1 20.0 20.0 20.0 20.0 20.0 20.1 20.0 20.0 20.0 20.0 20.0 20.0 20.1 20.1 20.0 20.0 20.0 20.0 20.0 20.0 20.0 20.0 20.0 20.0 20.0 20.0 20.0 20.0 20.0 20.0 20.0 20.0 20.0 20.0 20.0 20.0 20.0 20.0 20.0 20.0 20.0 20.0 20.0 20.0 20.0 20.0 20.0 20.0 20.0 20.0 20.0 20.0 20.0 20.0 20.0 24.8 28.3 30.1 36.0 38.6 39.3 60.3 61.0 35.9 27.5 26.2 25.2 24.4 23.6 23.1 22.6 22.1 21.7 21.4 21.1 20.9 20.8 20.6 20.4 20.2 20.1 24.7 26.0 26.7 27.6 28.8 29.9 31.4 30.0 27.3 26.1 25.3 24.6 23.9 23.3 22.8 22.4 22.0 21.6 21.3 21.0 20.8 20.7 20.5 20.3 20.2 20.1 23.7 24.4 25.2 26.0 26.7 27.6 28.1 27.2 25.9 25.1 24.4 23.9 23.4 23.0 22.6 22.2 21.9 21.5 21.2 21.0 20.8 20.6 20.5 20.3 20.2 20.1 23.4 23.9 24.6 25.4 26.0 26.5 26.4 25.6 24.8 24.3 23.8 23.4 23.0 22.7 22.3 22.0 21.7 21.4 21.2 21.0 20.8 20.6 20.4 20.3 20.1 20.1 23.2 23.7 24.4 25.0 25.2 25.2 25.1 24.7 24.1 23.7 23.3 23.0 22.7 22.4 22.1 21.8 21.6 21.3 21.1 20.9 20.8 20.6 20.4 20.3 20.1 20.1 23.1 23.6 24.3 24.7 24.5 24.3 24.2 24.0 23.6 23.2 22.9 22.6 22.4 22.2 22.0 21.7 21.5 21.3 21.1 20.9 20.7 20.5 20.4 20.3 20.1 20.1 23.1 23.6 24.3 24.5 24.0 23.7 23.6 23.4 23.1 22.8 22.5 22.3 22.2 22.0 21.8 21.6 21.4 21.2 21.0 20.8 20.7 20.5 20.4 20.2 20.1 20.1 22.8 23.4 24.4 24.4 23.5 23.2 23.2 23.0 22.7 22.5 22.3 22.1 21.9 21.8 21.6 21.5 21.3 21.1 21.0 20.8 20.6 20.5 20.3 20.2 20.1 20.1 22.4 23.3 24.3 23.9 22.9 22.6 22.7 22.6 22.4 22.2 22.0 21.8 21.7 21.6 21.5 21.3 21.2 21.1 20.9 20.7 20.6 20.4 20.3 20.2 20.1 20.1 22.0 22.9 23.4 22.8 22.3 22.2 22.3 22.2 22.1 21.9 21.8 21.6 21.5 21.4 21.3 21.2 21.1 21.0 20.8 20.7 20.5 20.4 20.3 20.2 20.1 20.0 21.6 22.1 22.1 21.9 21.8 21.9 21.9 21.9 21.8 21.7 21.5 21.4 21.4 21.2 21.2 21.1 21.0 20.9 20.7 20.6 20.5 20.4 20.3 20.2 20.1 20.0 21.4 21.6 21.5 21.5 21.5 21.6 21.6 21.6 21.6 21.5 21.4 21.3 21.2 21.1 21.0 21.0 20.9 20.8 20.7 20.6 20.5 20.3 20.2 20.2 20.1 20.0 21.3 21.3 21.1 21.2 21.3 21.4 21.4 21.4 21.4 21.3 21.2 21.1 21.1 21.0 20.9 20.9 20.8 20.7 20.6 20.5 20.4 20.3 20.2 20.2 20.1 20.0 21.0 20.9 20.9 21.0 21.2 21.2 21.2 21.2 21.3 21.2 21.1 21.0 20.9 20.9 20.8 20.8 20.7 20.7 20.6 20.5 20.4 20.3 20.2 20.1 20.1 20.0 20.8 20.7 20.7 20.9 21.0 21.0 21.0 21.1 21.1 21.0 21.0 20.9 20.8 20.8 20.8 20.7 20.7 20.6 20.5 20.5 20.4 20.3 20.2 20.1 20.1 20.0 20.6 20.6 20.7 20.8 20.9 20.9 20.9 20.9 21.0 20.9 20.8 20.8 20.7 20.7 20.7 20.6 20.6 20.6 20.5 20.4 20.4 20.3 20.2 20.1 20.1 20.0 20.4 20.5 20.6 20.7 20.7 20.7 20.7 20.8 20.8 20.8 20.7 20.7 20.6 20.6 20.6 20.6 20.5 20.5 20.5 20.4 20.3 20.3 20.2 20.1 20.1 20.0 20.4 20.5 20.6 20.6 20.6 20.6 20.6 20.7 20.7 20.7 20.6 20.6 20.5 20.5 20.5 20.5 20.5 20.5 20.4 20.4 20.3 20.2 20.2 20.1 20.1 20.0 20.3 20.4 20.5 20.5 20.5 20.5 20.5 20.6 20.6 20.6 20.5 20.5 20.4 20.4 20.4 20.4 20.4 20.4 20.4 20.4 20.3 20.2 20.2 20.1 20.1 20.0 20.3 20.4 20.4 20.4 20.4 20.4 20.4 20.4 20.5 20.5 20.4 20.4 20.3 20.3 20.3 20.3 20.4 20.4 20.3 20.3 20.3 20.2 20.2 20.1 20.0 20.0 20.2 20.3 20.3 20.3 20.3 20.3 20.3 20.3 20.4 20.4 20.4 20.3 20.3 20.2 20.3 20.3 20.3 20.3 20.3 20.3 20.2 20.2 20.1 20.1 20.0 20.0 20.2 20.2 20.3 20.3 20.2 20.2 20.2 20.2 20.3 20.3 20.3 20.3 20.2 20.2 20.2 20.2 20.2 20.2 20.2 20.2 20.2 20.2 20.1 20.1 20.0 20.0 20.1 20.2 20.2 20.2 20.2 20.1 20.1 20.2 20.2 20.2 20.2 20.2 20.2 20.1 20.1 20.1 20.1 20.1 20.1 20.2 20.2 20.1 20.1 20.1 20.0 20.0 20.1 20.1 20.1 20.1 20.1 20.1 20.1 20.1 20.1 20.1 20.1 20.1 20.1 20.1 20.1 20.1 20.1 20.1 20.1 20.1 20.1 20.1 20.1 20.1 20.0 20.0 20.1 20.1 20.1 20.1 20.0 20.0 20.0 20.0 20.1 20.1 20.1 20.1 20.0 20.0 20.0 20.0 20.0 20.0 20.0 20.0 20.1 20.0 20.0 20.0 20.0 20.0 20.0 20.0 20.0 20.0 20.0 20.0 20.0 20.0 20.0 20.0 20.0 20.0 20.0 20.0 20.0 20.0 20.0 20.0 20.0 20.0 20.0 20.0 20.0 20.0 20.0 20.0 28.3 34.1 34.0 35.7 35.5 34.0 43.3 43.5 31.9 27.7 26.1 25.2 24.5 23.8 23.2 22.7 22.2 21.8 21.4 21.2 20.9 20.8 20.6 20.4 20.2 20.1 26.1 29.5 30.3 28.9 28.5 29.2 29.6 28.9 27.4 26.1 25.3 24.6 24.1 23.6 23.1 22.6 22.1 21.6 21.3 21.0 20.8 20.6 20.5 20.3 20.2 20.1 24.1 25.6 26.6 26.3 26.7 27.5 27.7 26.9 25.8 25.2 24.6 24.1 23.7 23.3 22.8 22.4 21.9 21.6 21.3 21.0 20.8 20.6 20.5 20.3 20.2 20.1 23.8 24.4 25.0 25.4 25.9 26.4 26.4 25.6 24.9 24.3 23.9 23.6 23.3 22.9 22.6 22.1 21.8 21.5 21.2 21.0 20.7 20.6 20.4 20.3 20.1 20.1 23.6 24.1 24.6 25.1 25.3 25.4 25.3 24.7 24.2 23.7 23.4 23.2 22.9 22.6 22.3 22.0 21.7 21.4 21.2 21.0 20.7 20.6 20.4 20.3 20.1 20.1 23.4 23.9 24.5 24.9 24.8 24.6 24.4 24.1 23.6 23.2 22.9 22.7 22.6 22.4 22.1 21.8 21.6 21.4 21.1 20.9 20.7 20.6 20.4 20.3 20.1 20.1 23.2 23.7 24.4 24.8 24.4 24.0 23.8 23.5 23.2 22.9 22.6 22.4 22.3 22.1 22.0 21.8 21.5 21.3 21.1 20.8 20.7 20.5 20.4 20.2 20.1 20.1 22.9 23.4 24.3 24.4 23.7 23.4 23.3 23.1 22.8 22.5 22.3 22.1 22.0 21.9 21.8 21.6 21.4 21.2 21.0 20.8 20.6 20.5 20.3 20.2 20.1 20.1 22.5 23.2 23.9 23.5 22.8 22.7 22.9 22.7 22.5 22.2 22.1 21.9 21.8 21.7 21.6 21.5 21.3 21.2 21.0 20.8 20.6 20.4 20.3 20.2 20.1 20.1 22.0 22.6 22.8 22.4 22.2 22.3 22.4 22.3 22.2 22.0 21.8 21.7 21.6 21.5 21.4 21.3 21.2 21.1 20.9 20.8 20.6 20.4 20.3 20.2 20.1 20.0 21.6 21.8 21.8 21.8 21.9 22.0 22.1 22.0 21.9 21.8 21.7 21.5 21.4 21.3 21.2 21.2 21.1 21.0 20.8 20.7 20.5 20.4 20.3 20.2 20.1 20.0 21.3 21.4 21.4 21.5 21.6 21.8 21.8 21.8 21.7 21.6 21.5 21.4 21.3 21.2 21.1 21.0 21.0 20.9 20.8 20.6 20.5 20.4 20.3 20.2 20.1 20.0 21.1 21.2 21.2 21.3 21.5 21.6 21.6 21.6 21.6 21.5 21.4 21.2 21.1 21.1 21.0 20.9 20.9 20.8 20.7 20.6 20.5 20.4 20.3 20.2 20.1 20.0 20.9 21.0 21.0 21.2 21.3 21.3 21.4 21.4 21.4 21.3 21.2 21.1 21.0 21.0 20.9 20.9 20.8 20.7 20.7 20.6 20.5 20.4 20.3 20.2 20.1 20.0 20.8 20.8 20.9 21.1 21.1 21.1 21.2 21.2 21.3 21.2 21.1 21.0 20.9 20.9 20.8 20.8 20.7 20.7 20.6 20.6 20.5 20.4 20.3 20.2 20.1 20.0 20.7 20.7 20.9 21.0 21.0 21.0 21.0 21.1 21.1 21.1 21.0 20.9 20.8 20.8 20.8 20.7 20.7 20.6 20.6 20.5 20.5 20.4 20.3 20.2 20.1 20.0 20.6 20.7 20.8 20.9 20.8 20.8 20.8 20.9 21.0 20.9 20.9 20.8 20.8 20.7 20.7 20.6 20.6 20.6 20.5 20.5 20.4 20.3 20.2 20.1 20.1 20.0 20.5 20.6 20.7 20.8 20.7 20.7 20.7 20.8 20.8 20.8 20.7 20.7 20.7 20.6 20.6 20.6 20.6 20.5 20.5 20.4 20.4 20.3 20.2 20.1 20.1 20.0 20.4 20.5 20.6 20.6 20.6 20.5 20.6 20.6 20.7 20.7 20.6 20.6 20.5 20.5 20.5 20.5 20.5 20.5 20.5 20.4 20.4 20.3 20.2 20.1 20.1 20.0 20.3 20.4 20.5 20.5 20.5 20.4 20.4 20.5 20.6 20.6 20.5 20.5 20.4 20.4 20.4 20.4 20.4 20.4 20.4 20.4 20.3 20.3 20.2 20.1 20.1 20.0 20.3 20.3 20.4 20.4 20.4 20.3 20.3 20.4 20.4 20.5 20.5 20.4 20.3 20.3 20.3 20.3 20.3 20.4 20.3 20.3 20.3 20.3 20.2 20.1 20.1 20.0 20.2 20.3 20.3 20.3 20.3 20.2 20.2 20.3 20.3 20.4 20.4 20.3 20.3 20.2 20.2 20.2 20.2 20.3 20.2 20.2 20.2 20.2 20.2 20.1 20.1 20.0 20.2 20.2 20.2 20.2 20.2 20.2 20.2 20.2 20.2 20.3 20.3 20.2 20.2 20.2 20.2 20.2 20.2 20.2 20.2 20.2 20.2 20.2 20.1 20.1 20.1 20.0 20.1 20.1 20.1 20.1 20.1 20.1 20.1 20.1 20.1 20.2 20.2 20.1 20.1 20.1 20.1 20.1 20.1 20.1 20.1 20.1 20.1 20.1 20.1 20.1 20.1 20.0 20.1 20.1 20.1 20.1 20.1 20.0 20.0 20.1 20.1 20.1 20.1 20.1 20.1 20.1 20.1 20.1 20.1 20.1 20.1 20.1 20.1 20.1 20.1 20.0 20.0 20.0 20.0 20.0 20.0 20.0 20.0 20.0 20.0 20.0 20.0 20.0 20.0 20.0 20.0 20.0 20.0 20.0 20.0 20.0 20.0 20.0 20.0 20.0 20.0 20.0 20.0 20.0 31.5 42.0 42.0 37.5 33.3 31.7 33.3 35.7 33.9 29.2 26.2 25.3 24.6 24.0 23.4 22.8 22.3 22.1 21.9 21.6 21.2 20.8 20.6 20.4 20.2 20.1 26.9 34.9 37.8 31.8 28.4 28.5 28.9 28.8 27.7 26.3 25.4 24.8 24.3 23.8 23.3 22.7 22.2 21.9 21.7 21.5 21.2 20.8 20.5 20.3 20.2 20.1 24.6 28.7 30.4 27.7 26.8 27.2 27.4 26.7 25.8 25.2 24.7 24.4 24.0 23.5 23.0 22.5 22.2 21.9 21.7 21.4 21.0 20.7 20.4 20.3 20.1 20.1 24.0 25.1 25.6 25.6 26.0 26.4 26.2 25.6 24.9 24.4 24.1 23.8 23.5 23.2 22.7 22.3 22.1 21.9 21.7 21.3 20.9 20.6 20.4 20.3 20.1 20.1 23.8 24.4 24.9 25.3 25.4 25.6 25.3 24.7 24.2 23.8 23.5 23.3 23.1 22.8 22.4 22.1 21.9 21.8 21.6 21.1 20.8 20.6 20.4 20.3 20.1 20.1 23.6 24.1 24.7 25.1 25.0 24.8 24.6 24.1 23.8 23.4 23.0 22.8 22.7 22.5 22.3 22.0 21.8 21.7 21.4 21.1 20.7 20.5 20.4 20.2 20.1 20.1 23.3 23.9 24.6 25.0 24.5 24.1 23.9 23.6 23.3 23.0 22.7 22.4 22.3 22.2 22.1 21.9 21.7 21.5 21.3 21.0 20.7 20.5 20.4 20.2 20.1 20.1 23.2 23.8 24.5 24.6 23.9 23.5 23.4 23.2 22.9 22.7 22.4 22.2 22.1 22.0 21.9 21.7 21.6 21.4 21.2 20.9 20.6 20.5 20.3 20.2 20.1 20.1 22.9 23.5 23.9 23.5 22.9 22.9 22.9 22.8 22.6 22.4 22.1 21.9 21.8 21.8 21.7 21.6 21.5 21.3 21.1 20.8 20.6 20.4 20.3 20.2 20.1 20.1 22.3 22.7 22.8 22.4 22.3 22.5 22.6 22.5 22.3 22.2 21.9 21.8 21.6 21.6 21.5 21.4 21.3 21.2 21.1 20.8 20.6 20.4 20.3 20.2 20.1 20.0 21.8 21.9 21.9 21.9 22.0 22.2 22.3 22.2 22.1 22.0 21.8 21.6 21.5 21.4 21.4 21.3 21.2 21.1 21.0 20.8 20.6 20.4 20.3 20.2 20.1 20.0 21.5 21.5 21.6 21.7 21.8 22.0 22.1 22.0 21.9 21.8 21.7 21.5 21.4 21.3 21.2 21.1 21.1 21.0 20.9 20.8 20.6 20.4 20.3 20.2 20.1 20.0 21.2 21.3 21.4 21.5 21.6 21.7 21.8 21.8 21.7 21.6 21.5 21.4 21.3 21.2 21.1 21.0 21.0 20.9 20.9 20.7 20.6 20.4 20.3 20.2 20.1 20.0 21.1 21.2 21.2 21.4 21.5 21.5 21.6 21.6 21.6 21.5 21.4 21.3 21.2 21.1 21.0 21.0 20.9 20.9 20.8 20.7 20.6 20.4 20.3 20.2 20.1 20.1 20.9 21.0 21.1 21.2 21.3 21.3 21.3 21.4 21.4 21.4 21.3 21.2 21.1 21.0 20.9 20.9 20.8 20.8 20.8 20.7 20.6 20.5 20.4 20.2 20.1 20.1 20.8 20.9 21.0 21.1 21.1 21.1 21.1 21.2 21.2 21.2 21.1 21.1 21.0 20.9 20.9 20.8 20.8 20.7 20.7 20.7 20.6 20.5 20.3 20.2 20.1 20.1 20.7 20.8 20.9 21.0 21.0 20.9 20.9 21.0 21.1 21.0 21.0 21.0 20.9 20.8 20.8 20.8 20.7 20.7 20.6 20.5 20.5 20.4 20.3 20.2 20.1 20.0 20.6 20.7 20.8 20.8 20.8 20.7 20.7 20.8 20.9 20.9 20.8 20.8 20.8 20.7 20.7 20.7 20.7 20.6 20.6 20.5 20.4 20.3 20.2 20.1 20.1 20.0 20.5 20.6 20.6 20.7 20.7 20.6 20.6 20.7 20.8 20.8 20.7 20.7 20.6 20.6 20.6 20.6 20.6 20.6 20.5 20.5 20.4 20.3 20.2 20.1 20.1 20.0 20.4 20.5 20.5 20.6 20.5 20.5 20.5 20.5 20.6 20.7 20.7 20.6 20.5 20.5 20.5 20.5 20.5 20.5 20.5 20.4 20.4 20.3 20.2 20.1 20.1 20.0 20.3 2