<?xml version="1.0"?>
<VTKFile type="PolyData" version="1.0" byte_order="LittleEndian" header_type="UInt64">
<PolyData>
<Piece NumberOfPoints="515" NumberOfVerts="0" NumberOfLines="0" NumberOfPolys="0">
    <Points>
        <DataArray type="Float32" NumberOfComponents="3" format="ascii">
        10.0903 10.8945 4.3947 14.9700 13.3542 3.0033 13.7599 9.0279 1.5005 13.2693 7.1944 3.4321 14.6945 11.4203 6.0728 14.3311 11.0935 0.5108 13.2157 11.7887 4.4082 14.0335 4.7948 6.5633 9.8405 11.5608 5.4636 8.6797 10.0113 6.3912 14.9189 9.7110 3.9774 14.4356 9.6556 6.1520 14.8768 8.1191 4.8089 11.0718 14.8998 6.3447 14.9082 10.5925 2.6733 13.6620 13.4858 3.7797 11.8298 10.4560 2.9183 11.8803 12.8218 8.1053 14.0288 11.0775 4.4484 13.4064 12.9919 6.6597 8.8481 14.4466 5.3751 11.2969 13.9401 5.5392 13.0272 12.4348 3.7391 14.0741 10.2520 4.2187 10.8572 11.8895 2.0547 12.9817 9.1914 0.1217 10.5280 5.4151 6.0799 13.9148 14.6235 3.4940 11.4593 7.9224 3.1659 12.0961 13.7405 1.7352 12.1620 8.6516 2.4653 14.5417 10.5976 5.4657 14.0551 9.7155 3.9855 13.1818 6.7986 5.1683 14.3075 8.7505 2.3683 14.2083 7.8028 2.6239 14.2764 7.3540 3.9865 14.8047 7.1171 3.1168 14.0732 6.9682 4.1471 14.5630 6.5451 1.6152 14.5378 1.5336 5.7221 14.3342 8.7948 2.2777 13.0717 5.7587 5.2315 14.3885 8.5113 2.3570 14.5878 9.6882 1.6948 14.4206 6.7373 4.3282 14.9911 9.1730 0.9314 13.8403 6.8615 3.5956 12.9420 13.2563 5.4832 14.7718 8.4318 0.8803 11.7940 5.5307 6.3474 14.1263 7.2451 2.7566 14.3204 14.9710 3.2105 11.6802 9.5844 5.6654 14.9170 4.0763 5.7437 14.4884 11.4908 0.4949 11.7506 13.5532 0.4996 5.1205 11.5350 7.2767 13.1820 13.8497 2.4538 9.3755 14.7813 4.7282 13.2758 14.9331 3.5139 14.6498 10.0103 4.1881 13.4492 8.0889 7.7611 13.6085 10.2991 3.6075 13.5337 8.7771 7.9834 13.7952 13.1817 6.0489 10.9742 7.0191 5.5396 14.6693 10.1182 6.1013 14.0502 13.4397 5.4184 11.5166 7.9255 7.4702 14.1205 9.5881 4.6220 11.3736 11.8006 4.9110 10.1805 8.1019 6.7182 14.4459 11.3016 0.5958 13.2255 14.2354 2.8200 12.9220 7.3826 6.1958 14.8449 10.2812 4.4734 9.7880 5.3734 5.9147 11.2736 10.3016 7.0085 14.8791 12.8395 5.5181 11.0477 11.1418 5.9554 10.3714 11.5642 6.5905 13.6714 10.0906 3.7120 13.3066 5.0618 3.4193 14.0178 14.4144 3.2283 8.9874 4.3722 7.0049 14.9190 10.0560 2.9042 14.2803 9.9905 3.0287 13.9957 12.0540 5.3780 13.3324 14.4284 0.3329 14.8378 9.8465 3.5789 12.9860 13.2229 5.2135 14.1237 8.3253 3.8943 13.8410 14.6850 4.2777 10.5413 14.1182 2.9074 9.2581 3.4105 6.2254 14.8517 9.8546 2.9449 13.8194 8.6167 5.1419 14.8307 8.3262 3.6019 12.4526 11.7007 4.8300 13.1721 11.7374 3.9729 13.2685 10.5281 6.0127 13.7006 1.5127 5.3971 13.5646 11.4302 6.5298 14.1800 7.7003 4.2376 14.6666 7.9797 3.8587 13.6455 14.8354 1.8222 14.2721 7.6688 4.5512 13.3377 14.2302 2.7473 14.5960 7.7098 3.8583 12.1189 14.6502 3.0923 14.3290 6.3777 5.0459 14.4089 6.8571 4.9046 14.9220 7.1880 4.1590 14.4812 4.9470 5.5591 14.7841 5.0560 4.6638 13.0289 3.8578 7.2109 14.5970 6.0093 1.8249 14.2032 4.2756 5.2674 13.7779 4.3587 2.6996 14.2116 5.0408 2.0612 14.0343 3.1093 5.9389 14.9112 6.8426 1.3300 13.5976 2.4564 5.8643 14.2828 2.4007 4.8161 14.0073 5.7849 1.5881 14.9329 2.5246 4.5923 14.0455 3.6050 3.5689 14.6955 3.4248 3.9368 14.9523 4.9743 5.5745 14.3380 6.5796 5.6032 14.9655 8.5277 3.7176 14.8494 9.6281 4.0598 14.5609 9.6074 4.3995 12.2698 13.6717 6.2275 14.5346 8.4562 5.0304 14.5867 8.4949 4.9815 13.7381 12.6679 4.3384 14.3655 6.4810 5.6444 13.1033 13.7128 1.7094 10.8729 13.8844 8.3072 14.3758 8.1200 4.7087 13.9358 6.8265 5.2718 14.9408 10.0822 3.0041 14.9000 11.6524 0.9591 14.4403 9.2945 4.4763 14.7750 10.1717 2.3719 11.8756 11.0642 4.7851 11.2998 10.9443 4.8812 12.0961 14.4592 2.5603 14.5149 10.0138 2.8403 13.9983 7.5378 4.4640 13.6229 13.7910 1.2926 14.6498 8.4346 3.3517 13.8750 7.2209 4.7638 12.8412 13.9153 1.1025 14.9371 9.2084 2.7052 11.0074 12.1326 5.4178 14.1386 12.7130 1.1732 12.8113 13.1148 0.6093 14.6073 6.0852 5.7481 14.8007 8.5348 2.8228 14.7432 8.4774 2.5979 14.6960 7.7519 3.2415 14.9255 8.5780 2.6550 10.6421 11.4868 4.9604 13.5728 3.7245 7.1318 14.7232 6.7170 4.4583 14.7925 6.3468 5.3184 14.5980 2.5171 7.0572 14.4162 8.0718 4.2844 14.6120 7.1839 3.9995 14.3368 8.0543 4.0414 14.0831 7.2547 4.7871 11.3207 9.9700 6.5604 14.9611 8.9401 1.9716 14.5866 8.2490 4.2405 7.2335 8.9190 8.0791 12.9958 5.6721 5.8849 14.1507 8.3632 2.8119 13.4521 6.9067 4.4030 14.8117 8.9419 2.9715 12.2299 9.8693 7.1160 13.8849 7.5083 3.4849 14.2508 8.4431 2.0691 14.9891 9.4595 1.7778 14.5875 6.0240 5.6534 14.7254 8.8419 1.8641 14.0515 8.2920 2.1862 14.8326 9.3440 0.3538 14.6349 8.9465 0.6544 14.8810 9.1415 0.3673 14.0290 6.2274 4.9525 14.8921 8.7233 1.0245 14.9706 9.0442 0.1961 14.5623 5.5152 5.2270 13.9856 4.7252 5.9801 14.4132 7.3234 3.5320 14.4528 5.9084 4.9260 14.1813 7.2412 2.6352 13.8790 0.0780 7.2223 14.3704 7.0386 3.2622 14.4249 5.4654 5.3433 14.0223 6.1382 3.9924 14.5330 8.1754 2.2785 14.2714 6.9041 3.5165 13.4276 4.5336 5.6495 14.4678 8.1408 1.5353 14.1789 7.1393 2.5538 14.3853 7.5219 3.3815 13.2441 4.0537 5.9797 13.4884 4.4854 6.0874 13.6302 5.9171 4.0427 14.0929 5.3758 5.1812 14.5033 8.5741 1.4131 14.4296 8.1759 1.7072 14.6350 8.1305 2.6547 14.1232 8.1865 2.2580 14.0376 5.6348 5.2732 13.5416 4.7761 5.5016 13.3234 2.8320 6.7313 13.4753 5.0847 5.5285 12.4262 3.7959 5.7082 14.3569 6.8252 4.4789 14.8112 8.8599 2.3427 11.5181 0.8956 7.2601 14.1774 12.2182 0.1068 11.7478 4.0949 6.3841 13.5627 11.6683 4.6446 14.7730 8.1230 2.6108 14.4683 7.7830 3.3032 14.2862 10.9358 0.3254 12.0725 2.2452 6.7740 12.5695 4.0345 6.2928 14.9057 6.4647 4.6091 14.9004 7.4608 3.3227 14.2901 6.4940 4.9286 14.3144 11.5897 0.2117 14.2006 11.3762 0.2613 14.3894 6.7631 4.5964 13.3191 12.1489 4.0258 14.6064 7.9413 3.1273 14.2071 10.7642 0.9661 14.7915 7.3224 3.7786 14.6562 6.0920 5.6397 14.3384 10.6929 0.5930 14.4217 10.8969 0.0557 14.2353 10.7446 1.0117 14.0096 12.1366 3.6749 13.9057 12.0801 3.6557 14.6780 13.2658 1.9315 14.3276 10.9497 4.1223 14.0764 12.3448 3.7337 12.7257 10.8236 5.6852 14.3318 10.5471 3.2857 14.8207 10.4914 0.6688 14.5572 11.2857 2.8056 13.5501 11.9920 4.4167 14.1790 12.5116 3.7845 14.0052 10.8540 2.1061 14.2107 10.8270 0.4408 14.4356 11.4377 0.0473 14.2817 11.2635 2.1928 14.1812 10.8567 0.4106 14.3313 10.7948 0.4945 14.9061 11.1480 2.9940 14.2316 10.6696 5.3557 13.9459 11.9452 1.1623 14.3799 11.5190 0.1917 14.2410 10.7908 0.4108 14.3329 10.7415 0.5646 13.5359 11.2907 5.3456 14.2919 10.5766 1.8686 13.9980 11.8446 2.2191 14.1002 11.1728 0.3264 14.0200 11.4373 0.7290 14.0753 11.8814 0.4726 13.9570 11.9586 1.3669 14.1760 11.4230 1.9326 14.0851 10.9583 0.4265 14.4662 10.7022 1.5329 14.2152 11.4123 2.4592 13.6654 9.6454 6.5008 13.2555 11.7276 6.1492 14.4311 11.4056 0.3251 14.0554 11.0839 1.1601 14.2273 11.3040 2.4990 14.1113 11.8939 0.0624 14.2291 11.1743 3.2029 14.4395 10.9181 4.3202 14.4501 11.1081 1.8501 13.7095 11.9109 3.3085 14.4486 11.1068 2.1649 14.4992 11.2640 2.8470 14.4667 11.2673 2.8842 13.9727 12.0275 1.0936 14.6116 10.9703 1.6299 14.0480 12.0867 1.2227 14.6946 11.0273 1.6504 13.4207 12.5783 1.6468 14.8913 11.2325 2.5495 13.8954 11.9677 1.4773 14.6186 11.0858 2.1719 14.1328 11.9946 1.9508 14.1749 12.0980 0.8426 14.3123 12.3191 3.8351 14.8299 11.2206 2.3250 14.4909 8.7323 1.2638 8.2174 12.6868 7.9482 14.7907 11.0540 4.9818 14.5415 11.0585 1.9744 14.1459 7.6873 4.5825 14.0559 11.9492 2.3017 14.7622 8.2388 3.8138 14.9698 7.8843 3.0253 14.7901 13.3034 4.0183 14.4352 9.0635 2.8581 14.0179 5.8082 5.6912 14.1227 11.9257 1.7416 13.5468 10.0375 6.6246 13.6044 11.9471 5.7495 14.3180 8.3102 4.4991 14.7554 13.1317 3.8857 14.6618 11.0036 5.0598 14.9664 11.0807 2.8924 14.2230 11.3698 2.4278 13.2690 12.2447 3.3522 13.1046 8.1866 5.5761 14.7655 7.1862 4.3817 14.0590 12.0105 3.7629 14.9276 10.0927 6.5810 14.6380 11.0465 2.1496 14.1713 11.6732 1.8616 14.8567 14.9093 5.4674 14.4129 10.6441 1.3655 13.6411 6.5734 5.7695 14.7086 13.2010 0.0903 14.4164 8.7049 8.2906 13.8151 8.7820 3.4227 11.9514 7.7605 6.2297 13.4198 8.1985 4.3701 13.2073 12.9578 5.8261 10.8549 14.4025 8.0167 13.0242 2.5178 7.6919 14.3117 6.1599 6.7411 14.8006 3.2705 6.8228 13.7033 8.0152 3.9329 14.5506 10.8297 5.0584 13.9622 11.9130 1.4112 12.5875 7.3496 5.7516 14.5353 13.4857 1.9303 12.8262 9.5008 8.1443 13.2439 6.5948 5.3307 13.2764 6.2839 6.0645 13.2238 6.0427 6.3631 14.8966 7.0313 4.9569 14.3285 9.5821 4.6667 14.7505 9.9575 4.6890 13.6493 7.4455 4.8672 12.8425 9.2030 5.5186 14.0861 8.6043 5.9477 13.7330 6.1749 5.9165 13.8503 8.5602 5.3790 14.8788 6.6240 4.9317 14.9224 9.1557 0.9509 14.9994 7.0736 5.0437 11.5738 6.8960 7.0859 14.7177 7.2378 5.0253 11.0585 2.9344 7.7572 14.7126 6.4256 6.7125 13.7811 8.2163 8.1527 14.6434 9.4143 2.1753 14.9549 11.8774 4.7404 14.5575 9.1164 8.3363 14.9691 7.0552 3.8865 14.9384 3.2767 6.6805 14.3425 11.6199 1.5559 14.0383 9.5536 7.9812 14.2609 8.8479 1.8057 14.7217 8.0545 1.8961 14.9927 11.9115 5.4436 14.4739 10.1369 3.0445 12.5416 6.9045 5.8383 13.9524 11.9345 0.6191 14.1972 10.3769 4.0030 14.5844 3.2755 6.8663 14.2955 8.8745 1.4383 13.6059 12.0215 3.6843 14.9718 10.9502 0.9471 14.3178 10.3086 3.8390 14.2177 11.0215 3.3126 12.7401 4.4597 7.7015 13.9947 11.8969 1.6647 13.6992 11.9558 2.4615 13.4697 5.6436 6.0251 13.9041 11.8835 2.2645 13.5994 11.9993 2.5184 14.4678 9.0053 5.8817 14.1564 11.6482 1.7715 13.7263 8.2604 5.5790 14.3677 10.6351 1.4702 14.1878 11.6613 2.2996 14.9832 11.5757 4.1993 12.1143 5.6308 6.9525 14.5562 10.1539 4.1358 13.6673 10.1161 8.0013 14.1716 11.8556 3.8152 14.2590 9.3471 5.5470 13.5488 7.3869 6.1676 14.7760 10.0532 4.3827 14.8909 11.1837 2.9770 14.7590 10.7833 3.7659 14.9973 12.0853 5.1546 14.2488 11.8702 4.1783 14.1090 8.3678 6.1524 14.8434 8.2334 5.9040 13.6233 7.9616 5.9151 11.7860 5.6382 7.2458 11.5758 6.9770 6.7523 14.4449 9.0035 6.1410 14.7417 11.5700 4.1267 14.9341 11.4241 3.6893 12.7558 5.2587 7.0669 14.0383 6.8309 6.5616 14.3315 7.5592 6.3879 14.5082 10.0683 4.2261 13.7023 7.4289 5.2000 14.8099 4.1145 6.9039 14.2730 11.6952 4.0506 14.3724 9.6363 5.0510 14.5445 9.9219 4.2820 14.9875 11.1208 3.2379 14.5353 12.1983 4.6498 11.0936 4.1395 7.6272 14.0381 11.9660 3.6288 13.6694 7.9480 5.9224 14.6765 5.5016 7.3782 14.7069 9.7889 4.5866 14.9530 11.4904 3.9682 14.6069 11.5990 4.3245 13.8190 9.3053 5.1747 14.6941 7.9554 6.2235 14.1313 11.2500 3.3594 14.5496 11.8763 4.5989 14.0941 9.5861 5.0370 14.5898 9.3591 5.6625 14.8767 11.7233 4.4443 14.5786 12.0527 4.7776 14.8779 11.7460 4.4761 14.5844 8.4848 6.1845 14.7879 8.2765 5.9181 14.4791 11.6924 4.3180 14.3065 11.6982 4.1477 14.3772 6.1106 7.2035 14.7575 9.3804 5.2055 14.8037 11.5591 4.0414 14.8269 4.2368 6.9013 14.9359 3.8125 7.1445 14.1587 11.8938 4.0372 14.1723 9.8118 4.7320 14.0157 8.2446 6.6178 14.6617 9.0463 5.7415 14.1837 11.1866 2.8440 14.5569 9.1019 5.5409 14.9197 11.1635 3.0799 14.4961 13.2198 0.5721 14.5160 13.1715 1.1758 14.4406 7.7232 6.6669 14.9575 7.3027 6.5546 14.4871 5.8656 7.3969 13.6753 5.7232 7.6720 14.8993 12.2377 5.3462 14.8483 12.5518 4.1838 13.6263 6.5060 7.4323 14.8098 12.2528 5.6771 14.8510 13.9183 3.4927 14.9271 11.7942 4.5848 14.8943 11.6365 4.4931 14.9016 12.4915 5.0563 14.0478 4.8930 7.8922 14.8532 11.8261 4.6574 14.9026 11.6315 4.4857 14.9550 11.5729 4.5461 14.9016 11.6337 4.5397 14.8959 11.7669 4.8260 14.6084 10.7592 6.9747 14.9924 10.9713 6.7120 14.8834 11.8467 4.9052 14.5451 11.2972 6.7710 14.6843 11.2911 6.4524 14.9302 12.2555 5.8066 13.7786 11.5118 7.2468 14.9485 11.6999 5.0224 14.8456 12.0691 5.8002 14.1305 12.0017 7.0588 14.9528 10.8591 6.9640 14.9734 11.8491 6.8867 14.9344 11.4202 7.2741 14.4962 11.0114 7.6668 14.4989 11.7803 6.3998 14.7192 11.8439 7.4683 14.7566 10.6740 7.5391 14.9293 11.2627 5.7750 14.9740 11.0828 6.8240 14.6995 11.9196 6.2891 14.0935 11.4946 7.6580 14.9444 11.3542 5.0913 14.9849 12.0488 6.0657 14.5954 11.3589 6.7474 14.3074 11.1507 7.7297 14.8365 11.7925 7.0954 14.8738 10.8780 7.3770 14.7435 11.0684 7.8505 14.6106 11.5702 6.6815 14.9014 11.0583 7.4192 
        </DataArray>
    </Points>
    <PointData>
        <DataArray type="Float32" Name="tag" format="ascii">
            46683.0000 48003.0000 49523.0000 51175.0000 59987.0000 61951.0000 61975.0000 63551.0000 69235.0000 72499.0000 76527.0000 86295.0000 179767.0000 184727.0000 196971.0000 200507.0000 200803.0000 204659.0000 210891.0000 218191.0000 220151.0000 220267.0000 246979.0000 254011.0000 255415.0000 255483.0000 257063.0000 260199.0000 262351.0000 262383.0000 263459.0000 265411.0000 272975.0000 289271.0000 295659.0000 297495.0000 299251.0000 300403.0000 300679.0000 301079.0000 326631.0000 347987.0000 349799.0000 349971.0000 351419.0000 353743.0000 355795.0000 357035.0000 358707.0000 361127.0000 363019.0000 364407.0000 374255.0000 377223.0000 377503.0000 377639.0000 379335.0000 380551.0000 382823.0000 385743.0000 391939.0000 393775.0000 393803.0000 395107.0000 395767.0000 395835.0000 397067.0000 398519.0000 400403.0000 400531.0000 401107.0000 402447.0000 402707.0000 404223.0000 404287.0000 407843.0000 411123.0000 411159.0000 411371.0000 411375.0000 411819.0000 413363.0000 413487.0000 415191.0000 417419.0000 417643.0000 418775.0000 419019.0000 420011.0000 420043.0000 424359.0000 425747.0000 425879.0000 429319.0000 432391.0000 432491.0000 433771.0000 435431.0000 436539.0000 436823.0000 437963.0000 438379.0000 440043.0000 446391.0000 449731.0000 452643.0000 455611.0000 457323.0000 459007.0000 459071.0000 459095.0000 459247.0000 460183.0000 461703.0000 463407.0000 465015.0000 466987.0000 469991.0000 470135.0000 471555.0000 471587.0000 471927.0000 473167.0000 475299.0000 476591.0000 476739.0000 481467.0000 499167.0000 501527.0000 507663.0000 507991.0000 509535.0000 509891.0000 511007.0000 511547.0000 513007.0000 513035.0000 513359.0000 514655.0000 514955.0000 516571.0000 517199.0000 519303.0000 520719.0000 520939.0000 522635.0000 522803.0000 524311.0000 524899.0000 525083.0000 528327.0000 529671.0000 529715.0000 529755.0000 529823.0000 529847.0000 530347.0000 531571.0000 533611.0000 533915.0000 535023.0000 536739.0000 537043.0000 537403.0000 537503.0000 538971.0000 539083.0000 540259.0000 543855.0000 546915.0000 552023.0000 553055.0000 555003.0000 556019.0000 556271.0000 556323.0000 556363.0000 557503.0000 562103.0000 562967.0000 566023.0000 567359.0000 567723.0000 568563.0000 572115.0000 572231.0000 572255.0000 573351.0000 573747.0000 573875.0000 577011.0000 577095.0000 577435.0000 578711.0000 580479.0000 582063.0000 582431.0000 582619.0000 583843.0000 583919.0000 584579.0000 585555.0000 585699.0000 585779.0000 586919.0000 587107.0000 587411.0000 587651.0000 587687.0000 588715.0000 588915.0000 589319.0000 590467.0000 590483.0000 590567.0000 590663.0000 593519.0000 593703.0000 595331.0000 595415.0000 597943.0000 597987.0000 600475.0000 600543.0000 601091.0000 602159.0000 602175.0000 603647.0000 603723.0000 604523.0000 604691.0000 606235.0000 606791.0000 607911.0000 607955.0000 608015.0000 609203.0000 609243.0000 609903.0000 610907.0000 611567.0000 613331.0000 614483.0000 614879.0000 616539.0000 616831.0000 618339.0000 618559.0000 621199.0000 623179.0000 624027.0000 624071.0000 624199.0000 624403.0000 625759.0000 626219.0000 626223.0000 627191.0000 627467.0000 627583.0000 628763.0000 629279.0000 630199.0000 630343.0000 631815.0000 632039.0000 632099.0000 632131.0000 632367.0000 633471.0000 633679.0000 633687.0000 633875.0000 634003.0000 634083.0000 635279.0000 635751.0000 635827.0000 637003.0000 637343.0000 637367.0000 638511.0000 638903.0000 639115.0000 641743.0000 641863.0000 641999.0000 643291.0000 643351.0000 643559.0000 646747.0000 646775.0000 648007.0000 648167.0000 649091.0000 649167.0000 649295.0000 651427.0000 652807.0000 655627.0000 656023.0000 656219.0000 657491.0000 658011.0000 659147.0000 661147.0000 662387.0000 662691.0000 663023.0000 664255.0000 665747.0000 665995.0000 666183.0000 666335.0000 667555.0000 667763.0000 667863.0000 667967.0000 669571.0000 669955.0000 671143.0000 671715.0000 672927.0000 672967.0000 673159.0000 673287.0000 673515.0000 674791.0000 674963.0000 674987.0000 676571.0000 676763.0000 676855.0000 677099.0000 678367.0000 678955.0000 679071.0000 679227.0000 679235.0000 680239.0000 680399.0000 680539.0000 681055.0000 682055.0000 682411.0000 682683.0000 682775.0000 683723.0000 683787.0000 683803.0000 683835.0000 683987.0000 684059.0000 684071.0000 684143.0000 684751.0000 684899.0000 684915.0000 685231.0000 685243.0000 685875.0000 686011.0000 686119.0000 686327.0000 686983.0000 687023.0000 687111.0000 687187.0000 687203.0000 687395.0000 687423.0000 688007.0000 688091.0000 688095.0000 688167.0000 688219.0000 688351.0000 688367.0000 688971.0000 689203.0000 689231.0000 689299.0000 689347.0000 689391.0000 689431.0000 689439.0000 690083.0000 690135.0000 690179.0000 690311.0000 691051.0000 691095.0000 691151.0000 691407.0000 692047.0000 692051.0000 692263.0000 692407.0000 693083.0000 693171.0000 693323.0000 693399.0000 694299.0000 694475.0000 695151.0000 695175.0000 695203.0000 695435.0000 696743.0000 696859.0000 697703.0000 697739.0000 698103.0000 698203.0000 699015.0000 699623.0000 700659.0000 700667.0000 700671.0000 701035.0000 702311.0000 702315.0000 702323.0000 702367.0000 702379.0000 702403.0000 702459.0000 702519.0000 702611.0000 702731.0000 702959.0000 703051.0000 704323.0000 704439.0000 704463.0000 704519.0000 704743.0000 704855.0000 705879.0000 705947.0000 706031.0000 706275.0000 706435.0000 706515.0000 706567.0000 707599.0000 707783.0000 707995.0000 708107.0000 708163.0000 708187.0000 708323.0000 708327.0000 709775.0000 709967.0000 710127.0000 711807.0000 712331.0000 713431.0000 713439.0000 713615.0000 713687.0000 714203.0000 717551.0000 717955.0000 750663.0000 752359.0000 759463.0000 766467.0000 766587.0000 769555.0000 770599.0000 771027.0000 775135.0000 775155.0000 775299.0000 776071.0000 779311.0000 779467.0000 782359.0000 784511.0000 787479.0000 787687.0000 788055.0000 789031.0000 789195.0000 789203.0000 790583.0000 790979.0000 792711.0000 793907.0000 794131.0000 794203.0000 794363.0000 795307.0000 795611.0000 796899.0000 797123.0000 797455.0000 798403.0000 799867.0000 800455.0000 801355.0000 801359.0000 801467.0000 803307.0000 803427.0000 803451.0000 803587.0000 804819.0000 808967.0000 810791.0000 810811.0000 813175.0000 815127.0000 
         </DataArray>
    </PointData>
</Piece>
</PolyData>
</VTKFile>