<?xml version="1.0"?>
<VTKFile type="ImageData" version="1.0" byte_order="LittleEndian" header_type="UInt64">
<ImageData WholeExtent="25 50 0 25 0 15"
 Origin="15.0000 0.0000 0.0000" Spacing="0.6000 0.6000 0.6000">
<Piece Extent="25 50 0 25 0 15">
<PointData>
<DataArray Name="TEMPERATURE" NumberOfComponents="1" type="Float32" format="ascii">
20.0 20.0 20.0 20.0 20.0 20.0 20.1 20.1 20.1 20.1 20.1 20.0 20.0 20.0 20.0 20.0 20.0 20.0 20.0 20.0 20.0 20.0 20.0 20.0 20.0 20.0 20.1 20.1 20.1 20.1 20.1 20.1 20.1 20.1 20.1 20.1 20.1 20.1 20.1 20.1 20.1 20.1 20.1 20.1 20.1 20.1 20.1 20.1 20.1 20.1 20.1 20.0 20.1 20.2 20.2 20.2 20.2 20.2 20.2 20.2 20.2 20.2 20.2 20.2 20.2 20.2 20.1 20.1 20.1 20.1 20.1 20.1 20.1 20.1 20.2 20.1 20.1 20.0 20.2 20.2 20.3 20.3 20.3 20.3 20.3 20.3 20.3 20.3 20.3 20.3 20.2 20.2 20.2 20.2 20.2 20.2 20.2 20.2 20.2 20.2 20.2 20.2 20.1 20.0 20.3 20.3 20.4 20.4 20.4 20.4 20.4 20.4 20.4 20.4 20.4 20.4 20.3 20.3 20.3 20.3 20.3 20.3 20.3 20.3 20.3 20.3 20.3 20.2 20.1 20.0 20.4 20.4 20.5 20.5 20.5 20.5 20.5 20.5 20.6 20.6 20.5 20.5 20.4 20.4 20.4 20.4 20.4 20.4 20.4 20.4 20.5 20.4 20.2 20.1 20.1 20.0 20.5 20.5 20.6 20.6 20.6 20.6 20.6 20.7 20.7 20.7 20.6 20.6 20.5 20.5 20.5 20.5 20.5 20.5 20.6 20.6 20.5 20.3 20.2 20.1 20.1 20.0 20.6 20.6 20.7 20.8 20.8 20.8 20.8 20.8 20.8 20.8 20.8 20.7 20.7 20.6 20.6 20.6 20.6 20.7 20.7 20.6 20.4 20.3 20.2 20.2 20.1 20.0 20.7 20.8 20.9 20.9 21.0 21.0 21.0 21.0 21.0 21.0 20.9 20.8 20.8 20.8 20.8 20.8 20.9 20.8 20.7 20.6 20.4 20.3 20.2 20.2 20.1 20.0 20.9 20.9 21.0 21.1 21.2 21.2 21.2 21.2 21.3 21.2 21.1 21.0 20.9 20.9 21.0 21.0 21.0 20.9 20.7 20.6 20.4 20.3 20.3 20.2 20.1 20.0 21.0 21.1 21.2 21.3 21.4 21.4 21.4 21.5 21.5 21.4 21.3 21.2 21.1 21.2 21.2 21.2 21.1 20.9 20.7 20.6 20.5 20.4 20.3 20.2 20.1 20.0 21.1 21.2 21.4 21.5 21.6 21.7 21.7 21.7 21.7 21.6 21.5 21.4 21.4 21.5 21.5 21.3 21.1 20.9 20.7 20.6 20.5 20.4 20.3 20.2 20.1 20.1 21.4 21.5 21.6 21.8 21.9 22.1 22.1 22.1 22.1 21.9 21.7 21.7 21.8 21.8 21.6 21.4 21.1 20.9 20.8 20.6 20.5 20.4 20.3 20.2 20.1 20.1 21.6 21.7 21.8 22.1 22.3 22.4 22.5 22.6 22.5 22.3 22.1 22.1 22.1 22.0 21.7 21.4 21.1 21.0 20.8 20.7 20.6 20.4 20.3 20.2 20.1 20.1 21.9 22.0 22.2 22.4 22.7 22.8 23.0 23.0 22.9 22.7 22.6 22.6 22.4 22.1 21.7 21.4 21.2 21.0 20.9 20.7 20.6 20.4 20.3 20.2 20.1 20.1 22.3 22.4 22.6 23.0 23.4 23.8 23.8 23.6 23.5 23.3 23.2 23.0 22.5 22.1 21.7 21.5 21.3 21.1 20.9 20.7 20.6 20.5 20.4 20.2 20.1 20.1 22.7 22.9 23.1 23.5 24.1 24.7 24.8 24.5 24.3 24.1 23.7 23.2 22.6 22.2 21.8 21.6 21.4 21.1 20.9 20.8 20.6 20.5 20.4 20.3 20.1 20.1 23.2 23.4 23.8 24.1 24.7 25.4 25.9 25.7 25.4 24.9 24.1 23.3 22.7 22.3 22.0 21.7 21.5 21.2 21.0 20.9 20.7 20.6 20.4 20.3 20.2 20.1 23.6 24.0 24.5 25.1 25.8 27.3 27.9 27.1 26.5 25.6 24.5 23.6 23.0 22.6 22.2 21.9 21.6 21.4 21.1 21.0 20.8 20.6 20.5 20.3 20.2 20.1 24.2 24.8 25.6 27.4 31.7 41.3 40.5 31.9 29.6 27.3 25.2 24.1 23.4 23.0 22.5 22.2 21.8 21.5 21.3 21.1 20.9 20.7 20.5 20.4 20.2 20.1 25.1 26.0 27.6 31.9 37.5 53.8 51.8 36.9 33.4 28.7 26.0 24.7 23.9 23.3 22.8 22.4 22.0 21.6 21.3 21.1 20.9 20.7 20.5 20.4 20.2 20.1 26.3 27.6 29.2 34.0 37.6 20.0 20.0 38.0 34.3 29.1 26.7 25.3 24.4 23.6 22.9 22.4 22.0 21.6 21.3 21.1 20.9 20.7 20.6 20.4 20.2 20.1 26.3 27.6 29.1 32.7 35.5 20.0 20.0 36.4 33.0 28.6 26.8 25.4 24.4 23.5 22.9 22.4 22.0 21.7 21.4 21.2 21.0 20.8 20.6 20.4 20.2 20.1 25.3 26.4 27.8 30.9 33.2 34.9 37.1 35.2 31.0 27.1 25.9 24.9 24.0 23.3 22.7 22.3 21.9 21.6 21.4 21.1 20.9 20.8 20.6 20.4 20.2 20.1 24.4 25.2 26.3 28.3 30.2 32.3 33.7 32.2 28.4 25.6 24.8 24.1 23.5 22.9 22.4 22.1 21.8 21.6 21.3 21.0 20.9 20.7 20.5 20.4 20.2 20.1 22.9 24.3 25.2 26.3 27.2 28.4 29.1 28.3 26.3 24.7 23.9 23.4 22.9 22.5 22.1 21.8 21.6 21.4 21.2 20.9 20.8 20.6 20.5 20.3 20.2 20.1 20.0 20.0 20.0 20.0 20.0 20.0 20.1 20.1 20.1 20.1 20.1 20.0 20.0 20.0 20.0 20.0 20.0 20.0 20.0 20.0 20.0 20.0 20.0 20.0 20.0 20.0 20.1 20.1 20.1 20.1 20.1 20.1 20.1 20.1 20.1 20.1 20.1 20.1 20.1 20.1 20.1 20.1 20.1 20.1 20.1 20.1 20.1 20.1 20.1 20.1 20.1 20.0 20.1 20.1 20.2 20.2 20.2 20.2 20.2 20.2 20.2 20.2 20.2 20.2 20.1 20.1 20.1 20.1 20.1 20.1 20.1 20.1 20.1 20.1 20.2 20.1 20.1 20.0 20.2 20.2 20.2 20.3 20.3 20.3 20.3 20.3 20.3 20.3 20.3 20.2 20.2 20.2 20.2 20.2 20.2 20.2 20.2 20.2 20.2 20.2 20.2 20.2 20.1 20.0 20.3 20.3 20.3 20.4 20.4 20.4 20.4 20.4 20.4 20.4 20.4 20.3 20.3 20.3 20.3 20.3 20.3 20.3 20.3 20.3 20.3 20.3 20.3 20.1 20.1 20.0 20.4 20.4 20.4 20.5 20.5 20.5 20.5 20.5 20.5 20.5 20.5 20.4 20.4 20.4 20.4 20.4 20.4 20.4 20.4 20.4 20.4 20.4 20.2 20.1 20.1 20.0 20.5 20.5 20.6 20.6 20.6 20.6 20.6 20.6 20.7 20.7 20.6 20.5 20.5 20.5 20.5 20.5 20.5 20.5 20.6 20.6 20.5 20.3 20.2 20.1 20.1 20.0 20.6 20.6 20.7 20.7 20.8 20.8 20.8 20.8 20.8 20.8 20.7 20.7 20.6 20.6 20.6 20.6 20.6 20.7 20.7 20.6 20.4 20.3 20.2 20.1 20.1 20.0 20.7 20.7 20.8 20.9 20.9 20.9 21.0 21.0 21.0 21.0 20.9 20.8 20.8 20.7 20.8 20.8 20.9 20.8 20.7 20.6 20.4 20.3 20.2 20.1 20.1 20.0 20.8 20.9 21.0 21.1 21.1 21.1 21.2 21.2 21.3 21.2 21.0 21.0 20.9 20.9 21.0 21.0 21.0 20.9 20.7 20.5 20.4 20.3 20.2 20.2 20.1 20.0 21.0 21.0 21.2 21.3 21.4 21.4 21.4 21.5 21.5 21.4 21.2 21.2 21.2 21.2 21.2 21.2 21.1 20.9 20.7 20.5 20.4 20.3 20.3 20.2 20.1 20.0 21.1 21.2 21.4 21.5 21.6 21.7 21.8 21.8 21.7 21.6 21.5 21.4 21.5 21.5 21.5 21.3 21.1 20.9 20.7 20.6 20.5 20.4 20.3 20.2 20.1 20.0 21.4 21.5 21.6 21.8 22.0 22.1 22.2 22.1 22.1 21.9 21.8 21.8 21.8 21.8 21.6 21.4 21.1 20.9 20.7 20.6 20.5 20.4 20.3 20.2 20.1 20.1 21.6 21.7 21.9 22.1 22.3 22.5 22.7 22.7 22.5 22.3 22.2 22.2 22.2 22.0 21.7 21.4 21.1 20.9 20.8 20.6 20.5 20.4 20.3 20.2 20.1 20.1 22.0 22.1 22.3 22.5 22.8 23.0 23.2 23.2 23.0 22.8 22.7 22.6 22.4 22.1 21.7 21.4 21.2 21.0 20.8 20.7 20.5 20.4 20.3 20.2 20.1 20.1 22.4 22.5 22.8 23.1 23.4 23.9 24.1 23.9 23.6 23.4 23.3 23.0 22.6 22.1 21.8 21.5 21.3 21.1 20.9 20.7 20.6 20.4 20.3 20.2 20.1 20.1 22.8 23.0 23.3 23.7 24.3 25.0 25.2 24.9 24.5 24.2 23.8 23.3 22.7 22.2 21.9 21.6 21.3 21.1 20.9 20.8 20.6 20.5 20.4 20.2 20.1 20.1 23.3 23.6 24.0 24.5 25.3 26.2 26.6 26.2 25.6 25.0 24.3 23.5 22.9 22.4 22.0 21.7 21.5 21.2 21.0 20.8 20.7 20.5 20.4 20.3 20.2 20.1 23.8 24.3 25.0 26.7 28.2 29.0 29.3 28.4 27.0 25.8 24.8 23.9 23.2 22.7 22.3 21.9 21.6 21.4 21.1 20.9 20.8 20.6 20.5 20.3 20.2 20.1 24.5 25.6 27.6 30.9 36.2 43.1 41.9 35.5 31.4 27.5 25.5 24.4 23.6 23.1 22.6 22.2 21.8 21.5 21.3 21.0 20.9 20.7 20.5 20.4 20.2 20.1 25.6 27.0 29.8 36.5 72.7 118.9 100.1 58.7 38.7 29.7 26.5 25.1 24.1 23.5 22.9 22.4 22.0 21.6 21.3 21.1 20.9 20.7 20.5 20.4 20.2 20.1 27.0 28.2 30.0 39.8 113.3 316.3 315.9 113.7 41.3 30.8 27.4 25.7 24.6 23.8 23.1 22.5 22.1 21.7 21.4 21.1 20.9 20.7 20.5 20.3 20.2 20.1 26.9 28.4 30.3 39.8 95.4 329.1 414.4 150.9 38.6 29.7 27.1 25.7 24.6 23.7 23.0 22.5 22.0 21.7 21.4 21.1 20.9 20.7 20.5 20.3 20.2 20.1 25.6 27.1 30.6 37.8 55.8 119.7 161.5 89.8 33.9 27.5 26.1 25.0 24.1 23.4 22.8 22.3 21.9 21.6 21.4 21.1 20.9 20.7 20.5 20.3 20.2 20.1 24.6 25.7 28.4 31.9 34.1 37.3 38.9 34.8 28.9 25.9 25.0 24.2 23.5 23.0 22.4 22.1 21.8 21.5 21.3 21.0 20.8 20.7 20.5 20.3 20.2 20.1 23.0 24.5 25.5 26.8 28.0 29.4 30.0 28.6 26.5 25.0 24.2 23.6 23.0 22.6 22.1 21.8 21.6 21.3 21.1 20.9 20.7 20.6 20.4 20.3 20.1 20.1 20.0 20.0 20.0 20.0 20.0 20.0 20.0 20.0 20.0 20.0 20.0 20.0 20.0 20.0 20.0 20.0 20.0 20.0 20.0 20.0 20.0 20.0 20.0 20.0 20.0 20.0 20.1 20.1 20.1 20.1 20.1 20.1 20.1 20.1 20.1 20.1 20.1 20.1 20.1 20.1 20.1 20.1 20.1 20.1 20.1 20.0 20.0 20.0 20.1 20.1 20.1 20.0 20.1 20.1 20.1 20.1 20.1 20.1 20.1 20.2 20.2 20.2 20.2 20.1 20.1 20.1 20.1 20.1 20.1 20.1 20.1 20.1 20.1 20.1 20.1 20.1 20.1 20.0 20.2 20.2 20.2 20.2 20.2 20.2 20.2 20.3 20.3 20.3 20.2 20.2 20.2 20.2 20.2 20.2 20.2 20.2 20.2 20.2 20.2 20.2 20.2 20.2 20.1 20.0 20.2 20.3 20.3 20.3 20.3 20.3 20.3 20.4 20.4 20.4 20.3 20.3 20.3 20.3 20.3 20.2 20.2 20.2 20.2 20.3 20.3 20.3 20.2 20.1 20.1 20.0 20.3 20.4 20.4 20.4 20.4 20.4 20.4 20.5 20.5 20.5 20.4 20.4 20.4 20.3 20.3 20.3 20.3 20.3 20.4 20.4 20.4 20.3 20.2 20.1 20.1 20.0 20.4 20.5 20.5 20.6 20.6 20.6 20.6 20.6 20.6 20.6 20.5 20.5 20.5 20.4 20.4 20.4 20.5 20.5 20.5 20.5 20.4 20.3 20.2 20.1 20.1 20.0 20.5 20.6 20.6 20.7 20.7 20.7 20.8 20.8 20.8 20.8 20.7 20.6 20.6 20.6 20.6 20.6 20.6 20.7 20.7 20.6 20.4 20.3 20.2 20.1 20.1 20.0 20.6 20.7 20.8 20.9 20.9 20.9 21.0 21.0 21.0 20.9 20.8 20.7 20.7 20.7 20.8 20.8 20.8 20.8 20.7 20.5 20.4 20.2 20.2 20.1 20.1 20.0 20.8 20.8 20.9 21.1 21.1 21.2 21.2 21.2 21.2 21.1 21.0 20.9 20.9 20.9 21.0 21.0 21.0 20.9 20.7 20.5 20.3 20.3 20.2 20.1 20.1 20.0 20.9 21.0 21.1 21.3 21.4 21.5 21.5 21.5 21.5 21.3 21.2 21.2 21.2 21.2 21.2 21.2 21.1 20.9 20.6 20.5 20.4 20.3 20.2 20.1 20.1 20.0 21.1 21.2 21.3 21.5 21.7 21.8 21.8 21.8 21.7 21.6 21.5 21.5 21.5 21.5 21.5 21.3 21.1 20.9 20.6 20.5 20.4 20.3 20.2 20.2 20.1 20.0 21.4 21.5 21.6 21.8 22.0 22.2 22.3 22.3 22.1 22.0 21.9 21.9 21.9 21.8 21.6 21.4 21.1 20.9 20.7 20.5 20.4 20.3 20.2 20.2 20.1 20.0 21.7 21.8 22.0 22.2 22.4 22.7 22.9 22.8 22.6 22.4 22.3 22.3 22.2 22.0 21.7 21.4 21.1 20.9 20.7 20.6 20.5 20.4 20.3 20.2 20.1 20.0 22.0 22.2 22.4 22.7 23.0 23.4 23.7 23.5 23.2 23.0 22.9 22.8 22.5 22.2 21.8 21.4 21.2 20.9 20.8 20.6 20.5 20.4 20.3 20.2 20.1 20.0 22.5 22.7 23.0 23.3 23.7 24.3 24.6 24.4 23.9 23.7 23.5 23.2 22.7 22.3 21.8 21.5 21.2 21.0 20.8 20.7 20.5 20.4 20.3 20.2 20.1 20.1 23.0 23.3 23.6 24.5 25.3 25.8 26.1 25.6 24.9 24.5 24.1 23.5 22.9 22.4 22.0 21.6 21.3 21.1 20.9 20.7 20.6 20.4 20.3 20.2 20.1 20.1 23.5 24.0 24.7 27.4 29.0 28.7 28.8 27.4 26.1 25.4 24.7 23.9 23.2 22.6 22.1 21.8 21.5 21.2 21.0 20.8 20.6 20.5 20.4 20.3 20.1 20.1 24.1 24.9 27.0 37.2 41.1 35.9 35.1 32.3 28.3 26.3 25.3 24.3 23.5 22.9 22.4 22.0 21.7 21.4 21.1 20.9 20.7 20.6 20.4 20.3 20.2 20.1 25.0 26.9 36.0 58.1 71.3 65.7 55.3 44.1 34.1 28.2 26.3 25.0 24.0 23.3 22.7 22.3 21.9 21.6 21.3 21.0 20.8 20.6 20.5 20.3 20.2 20.1 26.3 28.9 40.5 73.4 146.2 198.6 169.4 97.8 46.4 31.9 27.9 26.0 24.7 23.8 23.1 22.6 22.1 21.7 21.3 21.1 20.9 20.7 20.5 20.3 20.2 20.1 27.9 29.9 35.7 70.1 203.1 363.0 365.4 205.3 75.3 40.7 29.1 26.9 25.3 24.2 23.4 22.7 22.2 21.7 21.4 21.1 20.8 20.6 20.5 20.3 20.2 20.1 27.9 29.9 33.8 63.4 181.0 371.4 432.2 244.1 72.1 39.5 28.5 26.6 25.3 24.2 23.4 22.7 22.1 21.7 21.4 21.1 20.8 20.6 20.5 20.3 20.2 20.1 26.4 28.3 33.5 53.2 105.6 193.0 237.8 141.3 41.2 29.7 26.8 25.6 24.6 23.7 23.0 22.4 22.0 21.6 21.3 21.1 20.8 20.6 20.5 20.3 20.2 20.1 25.1 26.4 30.0 36.6 43.2 48.2 54.8 47.1 31.2 26.8 25.5 24.6 23.8 23.1 22.6 22.1 21.8 21.5 21.2 21.0 20.8 20.6 20.4 20.3 20.1 20.1 23.4 25.0 26.0 27.5 29.4 31.6 32.8 30.6 27.4 25.8 24.7 24.0 23.3 22.7 22.2 21.9 21.6 21.3 21.1 20.9 20.7 20.5 20.4 20.3 20.1 20.1 20.0 20.0 20.0 20.0 20.0 20.0 20.0 20.0 20.0 20.0 20.0 20.0 20.0 20.0 20.0 20.0 20.0 20.0 20.0 20.0 20.0 20.0 20.0 20.0 20.0 20.0 20.1 20.1 20.1 20.1 20.1 20.1 20.1 20.1 20.1 20.1 20.1 20.1 20.1 20.1 20.1 20.1 20.1 20.1 20.0 20.0 20.0 20.0 20.0 20.1 20.1 20.0 20.1 20.1 20.1 20.1 20.1 20.1 20.2 20.2 20.2 20.2 20.2 20.1 20.1 20.1 20.1 20.1 20.1 20.1 20.1 20.1 20.1 20.1 20.1 20.1 20.1 20.0 20.2 20.2 20.2 20.2 20.2 20.2 20.2 20.3 20.3 20.3 20.2 20.2 20.2 20.2 20.2 20.2 20.2 20.2 20.2 20.2 20.2 20.2 20.2 20.1 20.1 20.0 20.3 20.3 20.3 20.3 20.4 20.3 20.3 20.4 20.4 20.4 20.3 20.3 20.3 20.3 20.3 20.3 20.3 20.2 20.2 20.3 20.3 20.3 20.2 20.1 20.1 20.0 20.3 20.4 20.4 20.5 20.5 20.5 20.5 20.5 20.5 20.5 20.4 20.4 20.4 20.4 20.3 20.3 20.3 20.3 20.4 20.4 20.4 20.3 20.2 20.1 20.0 20.0 20.4 20.5 20.5 20.6 20.6 20.6 20.6 20.6 20.7 20.6 20.5 20.5 20.5 20.5 20.5 20.5 20.5 20.5 20.5 20.5 20.4 20.3 20.2 20.1 20.0 20.0 20.5 20.6 20.6 20.7 20.8 20.8 20.8 20.8 20.8 20.8 20.7 20.6 20.6 20.6 20.6 20.6 20.6 20.6 20.6 20.5 20.4 20.3 20.2 20.1 20.1 20.0 20.7 20.7 20.8 20.9 21.0 21.0 21.0 21.0 21.0 20.9 20.8 20.8 20.8 20.8 20.8 20.8 20.8 20.8 20.7 20.5 20.4 20.3 20.2 20.1 20.1 20.0 20.8 20.9 21.0 21.1 21.2 21.2 21.2 21.3 21.2 21.1 21.0 21.0 21.0 21.0 21.0 21.0 20.9 20.8 20.7 20.5 20.4 20.3 20.2 20.1 20.1 20.0 21.0 21.1 21.2 21.3 21.4 21.5 21.6 21.6 21.5 21.4 21.3 21.2 21.2 21.2 21.2 21.2 21.0 20.8 20.6 20.5 20.4 20.3 20.2 20.1 20.1 20.0 21.2 21.3 21.4 21.6 21.7 21.8 21.9 21.9 21.8 21.7 21.6 21.5 21.5 21.5 21.4 21.3 21.1 20.9 20.7 20.5 20.4 20.3 20.2 20.1 20.1 20.0 21.4 21.5 21.7 21.9 22.1 22.2 22.4 22.4 22.2 22.1 22.0 21.9 21.9 21.8 21.6 21.4 21.1 20.9 20.7 20.6 20.4 20.3 20.2 20.2 20.1 20.0 21.7 21.9 22.0 22.3 22.5 22.7 22.9 23.0 22.7 22.6 22.5 22.4 22.2 22.0 21.7 21.4 21.2 20.9 20.8 20.6 20.5 20.4 20.3 20.2 20.1 20.0 22.1 22.3 22.5 22.8 23.1 23.5 23.8 23.7 23.4 23.2 23.1 22.8 22.6 22.2 21.8 21.5 21.2 21.0 20.8 20.7 20.5 20.4 20.3 20.2 20.1 20.0 22.5 22.8 23.1 23.5 23.9 24.4 24.9 24.8 24.2 23.9 23.7 23.3 22.9 22.4 22.0 21.6 21.3 21.1 20.9 20.7 20.6 20.4 20.3 20.2 20.1 20.0 23.0 23.5 24.7 25.9 26.1 26.5 26.9 26.3 25.4 24.8 24.3 23.7 23.1 22.6 22.1 21.7 21.4 21.2 20.9 20.8 20.6 20.4 20.3 20.2 20.1 20.1 23.6 24.4 27.3 31.1 31.2 30.7 31.2 29.1 26.8 25.8 25.0 24.2 23.5 22.8 22.3 21.9 21.5 21.3 21.0 20.8 20.7 20.5 20.4 20.2 20.1 20.1 24.5 26.3 34.0 46.9 48.0 41.6 40.4 36.1 29.9 27.1 25.9 24.8 23.8 23.1 22.6 22.1 21.7 21.4 21.2 21.0 20.8 20.6 20.4 20.3 20.1 20.1 26.1 34.9 67.4 110.0 112.3 85.8 70.2 57.3 41.8 32.4 28.3 25.6 24.4 23.5 22.9 22.4 22.0 21.7 21.3 21.1 20.8 20.6 20.5 20.3 20.1 20.1 28.2 39.8 84.1 162.4 223.9 241.2 223.2 143.4 61.9 37.9 30.4 26.8 25.3 24.2 23.4 22.7 22.2 21.8 21.4 21.1 20.9 20.7 20.5 20.3 20.2 20.1 29.3 36.0 60.7 142.6 286.9 399.5 412.5 288.9 125.2 50.1 30.9 27.8 25.9 24.7 23.7 23.0 22.4 21.9 21.5 21.1 20.9 20.6 20.5 20.3 20.2 20.1 29.3 33.7 53.5 126.2 267.4 399.9 434.6 302.4 124.8 49.7 30.4 27.5 25.8 24.6 23.7 22.9 22.3 21.8 21.5 21.1 20.9 20.6 20.5 20.3 20.2 20.1 27.9 30.8 48.6 94.0 156.9 219.2 255.0 171.9 59.8 33.9 28.4 26.3 25.0 24.0 23.3 22.6 22.2 21.7 21.4 21.1 20.9 20.7 20.5 20.3 20.2 20.1 25.7 27.5 34.0 44.2 50.9 57.5 77.6 71.8 40.2 28.5 26.3 25.1 24.2 23.4 22.8 22.3 21.9 21.6 21.3 21.0 20.8 20.6 20.4 20.3 20.1 20.1 23.6 25.6 27.6 29.4 30.9 34.0 36.9 35.2 30.0 26.6 25.3 24.4 23.6 22.9 22.4 22.0 21.6 21.4 21.1 20.9 20.7 20.5 20.4 20.2 20.1 20.1 20.0 20.0 20.0 20.0 20.0 20.0 20.0 20.0 20.0 20.0 20.0 20.0 20.0 20.0 20.0 20.0 20.0 20.0 20.0 20.0 20.0 20.0 20.0 20.0 20.0 20.0 20.1 20.1 20.1 20.1 20.1 20.1 20.1 20.1 20.1 20.1 20.1 20.1 20.1 20.1 20.1 20.1 20.1 20.1 20.1 20.1 20.1 20.1 20.1 20.1 20.1 20.0 20.1 20.1 20.2 20.2 20.2 20.2 20.2 20.2 20.2 20.2 20.2 20.2 20.1 20.1 20.1 20.1 20.1 20.1 20.1 20.1 20.1 20.1 20.1 20.1 20.1 20.0 20.2 20.2 20.2 20.3 20.3 20.3 20.3 20.3 20.3 20.3 20.3 20.2 20.2 20.2 20.2 20.2 20.2 20.2 20.2 20.2 20.2 20.2 20.2 20.1 20.1 20.0 20.3 20.3 20.3 20.4 20.4 20.4 20.4 20.4 20.4 20.4 20.4 20.3 20.3 20.3 20.3 20.3 20.3 20.3 20.3 20.3 20.3 20.3 20.2 20.1 20.1 20.0 20.4 20.4 20.5 20.5 20.5 20.5 20.5 20.5 20.6 20.5 20.5 20.4 20.4 20.4 20.4 20.4 20.4 20.4 20.4 20.4 20.4 20.3 20.2 20.1 20.1 20.0 20.5 20.5 20.6 20.6 20.7 20.6 20.7 20.7 20.7 20.7 20.6 20.6 20.6 20.6 20.5 20.5 20.5 20.5 20.5 20.5 20.4 20.3 20.2 20.1 20.1 20.0 20.6 20.6 20.7 20.8 20.8 20.8 20.8 20.9 20.9 20.9 20.8 20.7 20.7 20.7 20.7 20.7 20.7 20.7 20.6 20.5 20.4 20.3 20.2 20.1 20.1 20.0 20.7 20.8 20.9 21.0 21.0 21.0 21.1 21.1 21.1 21.1 21.0 20.9 20.9 20.9 20.8 20.8 20.8 20.8 20.7 20.5 20.4 20.3 20.2 20.1 20.1 20.0 20.9 21.0 21.1 21.2 21.2 21.3 21.3 21.4 21.4 21.3 21.2 21.1 21.1 21.1 21.0 21.0 20.9 20.8 20.7 20.6 20.4 20.3 20.2 20.1 20.1 20.0 21.1 21.1 21.3 21.4 21.5 21.5 21.6 21.7 21.6 21.5 21.4 21.4 21.3 21.3 21.2 21.2 21.0 20.9 20.7 20.6 20.5 20.3 20.2 20.2 20.1 20.0 21.3 21.4 21.5 21.6 21.8 21.8 22.0 22.1 22.0 21.8 21.7 21.7 21.6 21.6 21.4 21.3 21.1 20.9 20.8 20.6 20.5 20.4 20.3 20.2 20.1 20.0 21.5 21.6 21.8 21.9 22.1 22.3 22.4 22.5 22.4 22.2 22.1 22.0 21.9 21.8 21.6 21.4 21.2 21.0 20.8 20.7 20.5 20.4 20.3 20.2 20.1 20.0 21.8 22.0 22.1 22.3 22.5 22.7 23.0 23.0 22.9 22.7 22.6 22.4 22.3 22.0 21.8 21.5 21.3 21.1 20.9 20.7 20.6 20.4 20.3 20.2 20.1 20.0 22.2 22.4 22.6 22.8 23.1 23.4 23.8 23.8 23.5 23.3 23.1 22.9 22.6 22.3 21.9 21.6 21.4 21.2 21.0 20.8 20.6 20.5 20.3 20.2 20.1 20.0 22.6 23.1 23.4 23.5 23.9 24.3 24.7 24.8 24.4 24.0 23.7 23.3 22.9 22.5 22.1 21.8 21.5 21.2 21.0 20.8 20.6 20.5 20.3 20.2 20.1 20.1 23.2 25.0 26.8 26.6 25.8 26.3 27.1 26.6 25.6 25.0 24.4 23.8 23.3 22.7 22.3 21.9 21.6 21.3 21.1 20.9 20.7 20.5 20.4 20.2 20.1 20.1 24.5 28.3 32.9 32.7 28.7 29.0 31.3 29.6 27.1 26.0 25.2 24.4 23.6 23.0 22.5 22.0 21.7 21.4 21.1 20.9 20.7 20.6 20.4 20.3 20.1 20.1 28.2 34.5 43.8 48.0 38.9 35.4 39.6 36.3 31.4 28.4 26.3 25.1 24.1 23.3 22.8 22.3 21.9 21.6 21.3 21.1 20.9 20.7 20.5 20.3 20.2 20.1 36.1 61.5 106.6 141.5 103.3 61.5 64.6 60.9 51.3 40.1 30.6 25.9 24.8 23.8 23.1 22.6 22.2 21.8 21.5 21.2 21.0 20.7 20.5 20.3 20.2 20.1 38.8 76.0 154.1 235.8 199.0 167.1 203.5 159.6 87.1 48.3 33.1 27.1 25.6 24.4 23.6 22.9 22.4 22.0 21.6 21.2 21.0 20.7 20.5 20.3 20.2 20.1 34.2 54.8 115.5 214.1 231.5 286.6 378.8 307.7 152.0 51.0 31.9 28.1 26.2 24.8 23.9 23.1 22.5 22.0 21.6 21.2 20.9 20.7 20.5 20.3 20.2 20.1 31.7 46.7 101.3 193.5 215.0 285.6 384.8 305.4 145.0 49.0 31.3 28.0 26.1 24.7 23.8 23.1 22.5 22.0 21.6 21.3 21.0 20.7 20.5 20.3 20.2 20.1 30.2 47.8 94.7 145.8 140.7 166.6 232.3 176.7 73.9 36.8 29.1 26.7 25.2 24.1 23.4 22.8 22.4 21.9 21.6 21.3 21.0 20.7 20.5 20.3 20.2 20.1 27.2 38.5 55.9 61.5 55.9 61.8 87.7 81.4 44.7 29.3 26.6 25.4 24.4 23.5 22.9 22.5 22.0 21.7 21.4 21.2 20.9 20.7 20.5 20.3 20.2 20.1 23.8 29.1 33.6 33.2 33.0 36.0 38.7 36.8 30.9 26.9 25.5 24.6 23.8 23.1 22.6 22.2 21.8 21.5 21.3 21.0 20.8 20.6 20.4 20.3 20.1 20.1 20.0 20.0 20.0 20.0 20.0 20.0 20.0 20.0 20.0 20.0 20.0 20.0 20.0 20.0 20.0 20.0 20.0 20.0 20.0 20.0 20.0 20.0 20.0 20.0 20.0 20.1 20.1 20.1 20.1 20.1 20.1 20.1 20.1 20.1 20.1 20.1 20.1 20.1 20.1 20.1 20.1 20.1 20.1 20.1 20.1 20.1 20.1 20.1 20.1 20.1 20.1 20.0 20.1 20.2 20.2 20.2 20.2 20.2 20.2 20.2 20.2 20.2 20.2 20.2 20.2 20.2 20.2 20.2 20.1 20.1 20.1 20.1 20.1 20.2 20.2 20.2 20.1 20.0 20.2 20.2 20.3 20.3 20.3 20.3 20.3 20.3 20.3 20.3 20.3 20.3 20.3 20.2 20.2 20.2 20.2 20.2 20.2 20.2 20.2 20.3 20.2 20.2 20.1 20.0 20.3 20.3 20.4 20.4 20.4 20.4 20.4 20.4 20.5 20.5 20.4 20.4 20.4 20.3 20.3 20.4 20.4 20.4 20.3 20.3 20.4 20.3 20.3 20.2 20.1 20.0 20.4 20.5 20.5 20.5 20.5 20.5 20.5 20.6 20.6 20.6 20.5 20.5 20.5 20.5 20.5 20.5 20.5 20.5 20.5 20.5 20.4 20.4 20.3 20.2 20.1 20.0 20.5 20.6 20.6 20.7 20.7 20.7 20.7 20.8 20.8 20.8 20.7 20.7 20.6 20.6 20.6 20.6 20.6 20.6 20.6 20.5 20.5 20.4 20.3 20.2 20.1 20.0 20.6 20.7 20.8 20.8 20.8 20.8 20.9 21.0 21.0 20.9 20.9 20.9 20.8 20.8 20.8 20.8 20.7 20.7 20.7 20.6 20.5 20.4 20.3 20.2 20.1 20.0 20.8 20.8 20.9 21.0 21.0 21.0 21.1 21.2 21.2 21.2 21.1 21.1 21.0 21.0 21.0 20.9 20.9 20.8 20.7 20.6 20.5 20.4 20.3 20.2 20.1 20.0 21.0 21.0 21.1 21.2 21.2 21.3 21.3 21.4 21.5 21.4 21.3 21.3 21.3 21.2 21.1 21.1 21.0 20.9 20.8 20.7 20.5 20.4 20.3 20.2 20.1 20.0 21.2 21.2 21.3 21.4 21.5 21.5 21.7 21.8 21.8 21.7 21.6 21.5 21.5 21.4 21.3 21.2 21.1 21.0 20.8 20.7 20.6 20.4 20.3 20.2 20.1 20.0 21.4 21.5 21.6 21.7 21.8 21.9 22.0 22.1 22.1 22.0 21.9 21.8 21.7 21.6 21.5 21.4 21.2 21.0 20.9 20.8 20.6 20.5 20.3 20.2 20.1 20.0 21.7 21.8 21.9 22.0 22.1 22.3 22.5 22.6 22.5 22.4 22.3 22.1 22.0 21.9 21.7 21.5 21.3 21.1 21.0 20.8 20.6 20.5 20.3 20.2 20.1 20.1 22.0 22.1 22.2 22.4 22.5 22.8 23.0 23.1 23.0 22.8 22.7 22.5 22.3 22.1 21.9 21.6 21.4 21.2 21.0 20.9 20.7 20.5 20.4 20.2 20.1 20.1 22.3 22.5 22.7 22.9 23.0 23.4 23.8 23.9 23.6 23.4 23.2 22.9 22.6 22.3 22.0 21.8 21.5 21.3 21.1 20.9 20.7 20.5 20.4 20.2 20.1 20.1 22.8 23.5 24.0 23.7 23.7 24.1 24.6 24.8 24.4 24.1 23.7 23.4 23.0 22.6 22.2 21.9 21.7 21.4 21.1 20.9 20.7 20.6 20.4 20.3 20.1 20.1 25.5 30.0 30.5 27.0 25.4 25.7 26.4 26.3 25.6 24.9 24.4 23.9 23.3 22.8 22.4 22.1 21.8 21.5 21.2 21.0 20.8 20.6 20.4 20.3 20.1 20.1 32.7 41.5 41.1 31.8 26.2 27.3 29.3 28.6 27.2 26.1 25.1 24.4 23.7 23.1 22.6 22.2 21.9 21.6 21.3 21.1 20.8 20.7 20.5 20.3 20.2 20.1 41.5 53.9 53.3 41.5 29.6 30.4 35.3 35.1 35.8 32.2 26.5 25.1 24.2 23.5 22.9 22.5 22.1 21.7 21.4 21.2 21.0 20.7 20.5 20.4 20.2 20.1 59.0 99.9 129.5 112.6 57.2 39.3 49.5 56.1 62.3 50.0 31.7 25.9 24.9 24.1 23.3 22.8 22.3 21.9 21.6 21.3 21.0 20.8 20.6 20.4 20.2 20.1 68.4 133.2 205.1 190.6 98.5 92.2 135.5 139.9 111.0 61.5 34.4 27.1 25.7 24.6 23.8 23.0 22.5 22.1 21.7 21.4 21.0 20.8 20.5 20.3 20.2 20.1 52.7 98.9 168.9 175.3 133.3 204.2 292.1 264.8 154.1 56.2 32.5 28.2 26.4 24.9 23.9 23.1 22.6 22.1 21.7 21.3 21.0 20.7 20.5 20.3 20.2 20.1 42.3 83.5 149.3 158.6 142.8 236.4 316.0 253.1 128.9 49.3 31.6 28.1 26.2 24.8 23.9 23.1 22.6 22.1 21.7 21.3 21.0 20.8 20.5 20.3 20.2 20.1 44.6 90.1 145.9 140.1 105.8 143.9 188.2 139.7 68.2 39.2 29.1 26.8 25.4 24.2 23.5 22.9 22.5 22.0 21.7 21.3 21.1 20.8 20.6 20.3 20.2 20.1 36.8 62.9 85.5 76.7 57.7 62.5 80.3 67.2 38.6 29.4 26.6 25.5 24.5 23.7 23.1 22.6 22.2 21.9 21.6 21.3 21.0 20.8 20.6 20.4 20.2 20.1 25.1 33.8 39.5 36.5 34.5 36.1 37.4 34.6 29.5 26.8 25.5 24.7 24.0 23.3 22.8 22.4 22.0 21.7 21.4 21.2 20.9 20.7 20.5 20.3 20.2 20.1 20.0 20.0 20.0 20.0 20.0 20.0 20.0 20.0 20.1 20.1 20.1 20.0 20.0 20.0 20.0 20.0 20.0 20.0 20.0 20.0 20.0 20.0 20.0 20.1 20.1 20.1 20.1 20.1 20.1 20.1 20.1 20.1 20.1 20.1 20.1 20.1 20.1 20.1 20.1 20.1 20.1 20.1 20.1 20.1 20.1 20.1 20.1 20.1 20.1 20.1 20.1 20.1 20.2 20.2 20.2 20.2 20.2 20.2 20.2 20.2 20.2 20.2 20.2 20.2 20.2 20.2 20.2 20.2 20.2 20.2 20.2 20.2 20.2 20.2 20.2 20.2 20.1 20.1 20.2 20.3 20.3 20.3 20.3 20.3 20.3 20.3 20.3 20.4 20.3 20.3 20.3 20.3 20.3 20.3 20.3 20.3 20.3 20.3 20.3 20.3 20.3 20.2 20.1 20.0 20.3 20.4 20.4 20.4 20.4 20.4 20.4 20.4 20.5 20.5 20.4 20.4 20.4 20.4 20.4 20.4 20.4 20.4 20.4 20.4 20.4 20.4 20.3 20.2 20.1 20.0 20.4 20.5 20.5 20.5 20.5 20.5 20.5 20.6 20.6 20.6 20.6 20.6 20.5 20.5 20.6 20.6 20.6 20.6 20.5 20.5 20.5 20.4 20.3 20.2 20.1 20.0 20.5 20.6 20.6 20.7 20.7 20.7 20.7 20.8 20.8 20.8 20.8 20.7 20.7 20.7 20.7 20.7 20.7 20.7 20.7 20.6 20.5 20.4 20.3 20.2 20.1 20.0 20.7 20.7 20.8 20.8 20.9 20.8 20.9 21.0 21.0 21.0 21.0 21.0 21.0 20.9 20.9 20.9 20.9 20.8 20.7 20.7 20.6 20.4 20.3 20.2 20.1 20.0 20.8 20.9 20.9 21.0 21.0 21.0 21.1 21.2 21.3 21.3 21.2 21.2 21.2 21.1 21.1 21.0 21.0 20.9 20.8 20.7 20.6 20.5 20.3 20.2 20.1 20.0 21.0 21.0 21.1 21.2 21.2 21.3 21.3 21.5 21.5 21.5 21.5 21.5 21.4 21.3 21.3 21.2 21.1 21.0 20.9 20.8 20.6 20.5 20.3 20.2 20.1 20.1 21.2 21.3 21.4 21.5 21.5 21.6 21.7 21.8 21.9 21.8 21.8 21.7 21.6 21.5 21.4 21.3 21.2 21.1 21.0 20.8 20.7 20.5 20.3 20.2 20.1 20.1 21.5 21.5 21.6 21.7 21.8 21.9 22.1 22.2 22.2 22.2 22.1 22.0 21.9 21.7 21.6 21.5 21.3 21.2 21.0 20.9 20.7 20.5 20.4 20.2 20.1 20.1 21.7 21.8 21.9 22.0 22.2 22.3 22.5 22.7 22.6 22.6 22.4 22.3 22.1 22.0 21.8 21.6 21.5 21.3 21.1 20.9 20.7 20.5 20.4 20.2 20.1 20.1 22.0 22.1 22.3 22.4 22.5 22.8 23.1 23.3 23.1 23.0 22.8 22.6 22.4 22.2 22.0 21.8 21.6 21.4 21.2 21.0 20.8 20.6 20.4 20.3 20.1 20.1 22.4 22.6 22.8 22.9 23.0 23.3 23.8 23.9 23.7 23.4 23.2 23.0 22.7 22.4 22.2 21.9 21.7 21.5 21.2 21.0 20.8 20.6 20.4 20.3 20.1 20.1 22.9 23.7 24.1 23.7 23.6 23.9 24.5 24.8 24.5 24.1 23.7 23.4 23.0 22.7 22.4 22.1 21.8 21.6 21.3 21.0 20.8 20.6 20.4 20.3 20.1 20.1 26.4 32.7 33.3 27.7 25.0 25.1 25.7 25.9 25.4 24.8 24.3 23.8 23.4 23.0 22.6 22.3 21.9 21.6 21.3 21.1 20.8 20.6 20.5 20.3 20.1 20.1 39.1 50.5 43.7 29.1 26.0 27.0 27.5 27.8 27.1 25.9 25.0 24.4 23.8 23.2 22.8 22.4 22.1 21.7 21.4 21.1 20.9 20.7 20.5 20.3 20.2 20.1 53.8 67.7 51.1 29.8 27.7 30.7 31.9 35.0 38.9 34.1 26.2 25.0 24.2 23.6 23.1 22.6 22.2 21.9 21.5 21.3 21.0 20.8 20.6 20.4 20.2 20.1 83.1 124.8 107.9 55.0 34.6 39.5 44.5 60.9 70.9 52.1 30.6 25.8 24.8 24.1 23.5 22.9 22.4 22.0 21.7 21.4 21.1 20.8 20.6 20.4 20.2 20.1 104.1 172.1 166.8 88.3 64.4 82.7 94.9 128.5 120.6 64.3 33.4 27.0 25.6 24.7 23.9 23.1 22.5 22.1 21.7 21.4 21.1 20.8 20.6 20.4 20.2 20.1 79.3 135.9 141.3 108.4 154.8 208.5 217.9 211.6 139.5 58.1 32.2 27.9 26.2 25.0 24.0 23.2 22.6 22.1 21.7 21.4 21.1 20.8 20.5 20.3 20.2 20.1 64.3 119.8 125.9 110.9 185.9 255.5 248.1 192.3 106.0 49.7 31.1 27.6 26.0 24.8 23.9 23.2 22.6 22.1 21.7 21.4 21.1 20.8 20.5 20.3 20.2 20.1 76.1 133.2 142.8 106.6 112.5 147.7 144.1 100.8 60.9 41.1 28.8 26.5 25.3 24.3 23.6 23.0 22.5 22.1 21.7 21.4 21.1 20.8 20.6 20.4 20.2 20.1 63.1 98.2 105.1 81.4 57.3 60.1 65.0 49.8 35.1 30.3 26.4 25.4 24.6 23.8 23.3 22.8 22.3 21.9 21.6 21.3 21.1 20.8 20.6 20.4 20.2 20.1 34.9 51.8 53.8 43.7 36.0 34.5 34.3 32.1 28.9 26.9 25.5 24.7 24.1 23.5 23.0 22.5 22.1 21.8 21.5 21.2 21.0 20.7 20.5 20.3 20.2 20.1 20.0 20.0 20.0 20.0 20.0 20.0 20.0 20.0 20.1 20.1 20.1 20.1 20.0 20.0 20.0 20.0 20.0 20.0 20.0 20.0 20.0 20.0 20.0 20.1 20.1 20.1 20.1 20.1 20.1 20.1 20.1 20.1 20.1 20.1 20.1 20.1 20.1 20.1 20.1 20.1 20.1 20.1 20.1 20.1 20.1 20.1 20.1 20.1 20.1 20.1 20.1 20.1 20.2 20.2 20.2 20.2 20.2 20.2 20.2 20.2 20.2 20.2 20.2 20.2 20.2 20.2 20.2 20.2 20.2 20.2 20.2 20.2 20.2 20.2 20.3 20.2 20.1 20.1 20.2 20.3 20.3 20.3 20.3 20.3 20.3 20.3 20.3 20.3 20.3 20.3 20.3 20.3 20.3 20.3 20.3 20.3 20.3 20.3 20.4 20.4 20.4 20.3 20.1 20.1 20.3 20.4 20.4 20.4 20.4 20.4 20.4 20.4 20.5 20.5 20.4 20.4 20.4 20.4 20.5 20.5 20.5 20.5 20.5 20.5 20.5 20.5 20.4 20.2 20.1 20.0 20.4 20.5 20.5 20.5 20.5 20.5 20.5 20.6 20.6 20.6 20.6 20.6 20.6 20.6 20.6 20.7 20.7 20.7 20.6 20.6 20.6 20.5 20.4 20.2 20.1 20.0 20.5 20.6 20.6 20.7 20.7 20.7 20.7 20.8 20.8 20.8 20.8 20.9 20.9 20.9 20.9 20.9 20.8 20.8 20.8 20.7 20.6 20.5 20.3 20.2 20.1 20.0 20.7 20.7 20.8 20.8 20.8 20.8 20.9 21.0 21.1 21.1 21.1 21.1 21.1 21.1 21.1 21.0 21.0 20.9 20.9 20.8 20.7 20.5 20.3 20.2 20.1 20.0 20.9 20.9 20.9 21.0 21.0 21.0 21.1 21.2 21.3 21.4 21.4 21.4 21.4 21.3 21.3 21.2 21.1 21.1 21.0 20.8 20.7 20.5 20.4 20.2 20.1 20.1 21.1 21.1 21.2 21.2 21.3 21.3 21.4 21.5 21.7 21.7 21.7 21.6 21.6 21.5 21.5 21.4 21.3 21.2 21.0 20.9 20.7 20.5 20.4 20.2 20.1 20.1 21.3 21.4 21.4 21.5 21.6 21.7 21.8 21.9 22.0 22.0 22.0 21.9 21.8 21.7 21.6 21.5 21.4 21.3 21.1 20.9 20.8 20.6 20.4 20.2 20.1 20.1 21.6 21.7 21.7 21.8 21.9 22.0 22.2 22.3 22.4 22.4 22.3 22.2 22.0 21.9 21.8 21.7 21.5 21.4 21.2 21.0 20.8 20.6 20.4 20.2 20.1 20.1 21.8 22.0 22.1 22.1 22.2 22.4 22.6 22.8 22.8 22.8 22.7 22.5 22.3 22.1 22.0 21.8 21.6 21.4 21.3 21.0 20.8 20.6 20.4 20.2 20.1 20.1 22.1 22.3 22.4 22.5 22.6 22.9 23.2 23.3 23.3 23.2 23.0 22.8 22.6 22.4 22.1 21.9 21.7 21.5 21.3 21.1 20.8 20.6 20.4 20.3 20.1 20.1 22.5 22.7 22.8 22.9 23.0 23.3 23.8 24.0 23.9 23.7 23.4 23.1 22.8 22.6 22.3 22.1 21.9 21.6 21.4 21.1 20.8 20.6 20.4 20.3 20.1 20.1 23.0 23.7 24.0 23.5 23.5 23.8 24.4 24.8 24.6 24.2 23.8 23.5 23.2 22.8 22.5 22.2 22.0 21.7 21.4 21.1 20.8 20.6 20.4 20.3 20.1 20.1 28.4 33.0 32.0 26.9 24.6 24.8 25.5 25.8 25.4 24.9 24.4 23.9 23.5 23.1 22.7 22.4 22.1 21.8 21.5 21.2 20.9 20.7 20.5 20.3 20.1 20.1 45.6 53.4 40.9 27.7 26.2 26.1 27.0 27.5 26.8 25.7 25.0 24.4 23.9 23.4 23.0 22.6 22.3 21.9 21.6 21.2 20.9 20.7 20.5 20.3 20.2 20.1 64.9 68.9 43.1 27.0 29.1 29.1 31.4 34.7 35.4 30.6 25.9 25.0 24.3 23.8 23.3 22.8 22.4 22.0 21.6 21.3 21.0 20.8 20.6 20.4 20.2 20.1 98.3 114.4 71.5 41.0 42.8 40.3 47.7 62.9 60.6 40.1 28.2 25.8 24.9 24.2 23.6 23.0 22.5 22.1 21.7 21.4 21.1 20.8 20.6 20.4 20.2 20.1 119.6 156.9 114.7 79.8 87.4 85.7 100.1 124.5 101.4 48.6 30.6 26.8 25.6 24.7 24.0 23.3 22.7 22.1 21.7 21.4 21.1 20.8 20.6 20.4 20.2 20.1 94.0 134.0 125.1 143.9 178.7 178.2 187.1 175.0 110.8 47.5 30.9 27.4 26.0 25.0 24.3 23.5 22.7 22.2 21.7 21.4 21.1 20.8 20.5 20.3 20.2 20.1 83.9 120.1 109.8 142.8 184.1 179.5 177.6 144.9 89.0 46.5 30.3 27.2 25.9 24.9 24.1 23.4 22.7 22.2 21.8 21.4 21.1 20.8 20.5 20.3 20.2 20.1 92.2 136.1 119.6 102.3 100.1 95.7 92.2 76.3 62.8 43.7 28.9 26.4 25.4 24.5 23.8 23.1 22.6 22.1 21.7 21.4 21.1 20.8 20.6 20.4 20.2 20.1 74.0 120.5 120.5 89.2 60.5 51.6 48.4 40.6 38.0 33.3 27.0 25.6 24.8 24.1 23.4 22.9 22.4 22.0 21.7 21.3 21.1 20.8 20.6 20.4 20.2 20.1 43.1 75.2 79.7 60.1 42.4 33.2 31.2 30.4 29.2 27.7 26.1 25.0 24.4 23.8 23.2 22.8 22.3 21.9 21.6 21.2 21.0 20.8 20.5 20.3 20.2 20.1 20.0 20.0 20.0 20.0 20.0 20.0 20.0 20.1 20.1 20.1 20.1 20.1 20.0 20.0 20.0 20.0 20.0 20.0 20.0 20.0 20.0 20.1 20.1 20.1 20.1 20.1 20.1 20.1 20.1 20.1 20.1 20.1 20.1 20.1 20.1 20.1 20.1 20.1 20.1 20.1 20.1 20.1 20.1 20.1 20.1 20.1 20.1 20.1 20.1 20.2 20.1 20.1 20.2 20.2 20.2 20.2 20.2 20.2 20.2 20.2 20.2 20.2 20.2 20.2 20.2 20.2 20.2 20.2 20.2 20.2 20.2 20.2 20.2 20.3 20.3 20.3 20.2 20.1 20.2 20.3 20.3 20.3 20.3 20.3 20.3 20.3 20.4 20.4 20.3 20.4 20.3 20.3 20.3 20.3 20.4 20.4 20.4 20.4 20.4 20.4 20.4 20.3 20.1 20.1 20.3 20.4 20.4 20.4 20.4 20.4 20.4 20.5 20.5 20.5 20.5 20.5 20.5 20.5 20.5 20.6 20.6 20.6 20.6 20.6 20.6 20.5 20.4 20.3 20.1 20.0 20.4 20.5 20.5 20.5 20.5 20.5 20.6 20.6 20.7 20.7 20.7 20.7 20.7 20.7 20.8 20.8 20.8 20.8 20.7 20.7 20.7 20.6 20.4 20.2 20.1 20.0 20.5 20.6 20.6 20.7 20.7 20.7 20.7 20.8 20.9 21.0 21.0 21.0 21.0 21.0 21.0 21.0 21.0 20.9 20.9 20.8 20.7 20.6 20.4 20.2 20.1 20.0 20.7 20.7 20.8 20.8 20.9 20.9 21.0 21.1 21.2 21.2 21.3 21.3 21.3 21.3 21.2 21.2 21.1 21.1 21.0 20.9 20.8 20.6 20.4 20.2 20.1 20.0 20.9 20.9 21.0 21.0 21.1 21.1 21.2 21.4 21.5 21.6 21.6 21.6 21.5 21.5 21.4 21.4 21.3 21.2 21.1 21.0 20.8 20.6 20.4 20.2 20.1 20.1 21.1 21.2 21.2 21.3 21.4 21.4 21.5 21.7 21.9 21.9 21.9 21.8 21.8 21.7 21.6 21.5 21.4 21.3 21.2 21.0 20.8 20.6 20.4 20.2 20.1 20.1 21.4 21.4 21.5 21.6 21.7 21.8 21.9 22.1 22.2 22.2 22.2 22.1 22.0 21.9 21.8 21.7 21.6 21.4 21.3 21.1 20.9 20.7 20.4 20.2 20.1 20.1 21.6 21.7 21.8 21.9 22.0 22.1 22.3 22.5 22.6 22.6 22.5 22.3 22.2 22.1 22.0 21.8 21.7 21.5 21.4 21.2 20.9 20.7 20.4 20.2 20.1 20.1 21.9 22.0 22.2 22.3 22.3 22.4 22.7 23.0 23.1 23.0 22.8 22.6 22.5 22.3 22.1 22.0 21.8 21.6 21.4 21.2 20.9 20.7 20.4 20.2 20.1 20.1 22.2 22.4 22.6 22.7 22.8 22.9 23.2 23.5 23.6 23.4 23.2 22.9 22.7 22.5 22.3 22.1 21.9 21.7 21.5 21.2 20.9 20.7 20.4 20.3 20.1 20.1 22.5 22.8 22.9 23.0 23.2 23.4 23.7 24.1 24.1 23.8 23.5 23.2 23.0 22.8 22.5 22.3 22.1 21.8 21.5 21.2 20.9 20.7 20.4 20.3 20.1 20.1 23.0 23.4 23.5 23.4 23.6 23.9 24.5 24.8 24.7 24.3 23.9 23.6 23.3 23.0 22.7 22.4 22.2 21.9 21.6 21.3 21.0 20.7 20.5 20.3 20.1 20.1 29.1 30.5 27.4 25.1 24.4 24.8 25.6 25.8 25.4 25.0 24.5 24.0 23.6 23.2 22.9 22.6 22.3 22.0 21.7 21.3 21.0 20.7 20.5 20.3 20.1 20.1 48.2 52.8 39.2 28.2 25.5 25.8 27.2 27.8 26.9 25.7 25.0 24.5 24.0 23.5 23.2 22.8 22.5 22.1 21.7 21.3 21.0 20.7 20.5 20.3 20.2 20.1 69.4 66.8 44.8 31.2 28.3 29.2 33.2 35.6 32.2 27.8 25.8 25.1 24.4 23.9 23.4 23.0 22.6 22.2 21.8 21.4 21.1 