<?xml version="1.0"?>
<VTKFile type="ImageData" version="1.0" byte_order="LittleEndian" header_type="UInt64">
<ImageData WholeExtent="25 50 25 50 1 1"
 Origin="15.0000 15.0000 0.0000" Spacing="0.6000 0.6000 0.6000">
<Piece Extent="25 50 25 50 1 1">
<PointData>
<DataArray Name="TEMPERATURE" NumberOfComponents="1" type="Float32" format="ascii">
60.8 71.0 52.3 54.2 61.1 68.0 71.9 73.3 66.2 50.9 40.8 35.0 31.2 29.6 29.3 29.2 29.0 28.4 27.3 26.2 25.9 26.4 26.9 27.5 27.4 26.7 51.0 49.2 43.0 48.4 48.1 44.3 45.1 48.0 45.5 40.0 37.6 35.2 32.2 30.3 29.7 29.5 29.1 28.2 26.9 25.9 25.6 26.0 26.5 27.0 26.9 26.3 42.3 43.0 42.9 49.1 49.2 40.5 39.5 41.3 38.7 36.0 34.6 33.7 32.1 30.8 30.6 30.5 29.6 28.0 26.3 25.3 25.3 25.9 26.4 26.7 26.4 25.7 41.4 44.4 42.4 46.5 47.8 39.3 36.9 37.4 35.3 33.6 32.3 31.8 31.4 31.5 31.8 31.5 29.7 27.3 25.5 24.8 25.1 26.0 26.5 26.8 26.3 25.5 38.2 40.7 38.8 41.9 42.3 36.4 33.9 34.0 34.2 33.3 31.4 31.2 32.1 32.8 32.7 31.6 29.1 26.5 25.0 24.8 25.3 26.3 27.0 27.3 26.7 25.7 36.5 37.2 36.4 37.6 36.2 33.1 32.5 33.7 35.4 33.9 32.1 32.9 33.8 33.5 32.5 30.6 28.1 26.1 25.2 25.2 25.8 26.8 27.5 28.1 27.6 26.6 40.5 40.5 39.6 37.5 35.7 34.2 33.1 35.1 37.1 35.5 34.7 35.4 34.5 32.6 31.1 29.2 27.5 26.4 25.8 25.8 26.3 27.3 28.2 29.2 29.2 28.6 49.3 52.9 53.0 46.5 43.8 42.0 37.2 36.5 36.9 36.8 36.8 35.6 33.0 31.3 30.2 29.1 28.2 27.4 26.7 26.4 26.8 27.8 29.2 30.7 31.1 30.6 55.0 64.2 65.6 58.4 55.0 50.5 41.9 36.4 35.7 37.0 35.6 32.7 31.1 31.0 31.1 30.4 29.5 28.3 27.3 27.0 27.4 28.8 30.7 32.7 33.2 32.5 50.4 61.3 63.0 62.1 60.0 51.1 41.7 34.8 35.2 35.6 32.3 30.1 30.7 32.1 32.7 31.8 30.1 28.6 27.9 27.8 28.4 30.6 32.6 34.3 34.6 33.5 39.4 46.0 47.8 53.7 53.6 43.6 37.4 33.7 34.2 33.2 30.8 30.8 32.5 33.8 33.6 31.7 29.7 28.7 28.6 29.1 30.1 32.3 33.7 34.9 34.5 32.8 33.4 33.8 34.0 38.8 39.4 34.2 32.7 32.7 33.1 32.8 32.4 32.9 34.4 34.5 33.0 30.9 29.7 29.8 30.3 31.0 32.0 33.5 34.2 34.7 33.3 30.8 36.5 33.6 31.5 31.4 31.2 30.2 30.6 32.3 33.9 34.6 34.4 34.3 34.7 34.0 32.4 31.2 31.1 31.7 32.2 33.0 33.7 34.3 33.7 33.3 31.2 28.4 43.7 41.0 36.8 32.9 31.3 31.3 32.0 34.1 35.8 35.2 34.8 34.8 34.9 34.7 33.7 33.1 33.1 33.3 33.6 34.3 34.3 33.8 32.4 31.2 29.1 26.8 47.7 46.8 42.5 36.5 33.1 34.0 35.0 36.2 36.0 34.7 36.0 36.4 36.2 36.2 35.2 34.4 34.3 34.4 34.5 34.9 34.1 32.7 30.8 29.1 27.4 25.7 45.7 46.0 43.9 39.8 36.6 37.6 37.9 37.4 35.8 36.2 39.1 39.3 37.8 36.5 35.0 34.2 34.2 34.5 34.7 34.8 33.5 31.6 29.4 27.6 26.4 25.4 40.4 41.0 41.5 42.2 42.0 42.8 41.6 39.5 38.4 40.2 42.9 41.9 37.9 34.7 33.5 33.1 33.2 33.7 33.8 33.5 31.9 29.7 28.1 26.9 26.0 25.1 36.4 37.2 39.8 45.0 47.6 48.3 46.1 43.1 43.1 45.7 46.8 43.6 37.2 33.2 32.6 32.3 32.2 32.5 32.1 31.3 29.4 27.4 26.9 26.6 26.1 25.2 36.3 37.2 40.2 46.5 49.4 49.7 49.4 47.7 49.3 51.9 50.3 43.3 35.1 32.4 32.1 31.6 31.0 30.7 29.7 28.1 26.8 26.0 26.1 26.5 26.3 25.6 38.5 40.2 41.1 44.3 45.4 44.6 46.6 49.0 52.6 54.3 48.5 38.2 31.3 30.9 31.4 31.1 30.3 29.0 27.3 25.7 25.3 25.5 25.9 26.4 26.2 25.6 40.6 43.4 43.3 43.0 41.4 37.1 37.0 40.9 45.1 44.5 37.1 30.2 28.3 29.4 30.1 30.3 29.2 27.2 25.7 25.0 25.0 25.4 25.7 26.1 25.7 24.9 39.0 42.0 44.0 44.5 40.9 33.8 30.5 30.7 31.8 30.5 27.1 26.0 26.8 28.5 29.6 29.5 27.7 25.5 24.9 25.0 25.2 25.5 25.7 25.9 25.3 24.2 35.2 36.6 41.4 44.5 40.3 33.5 29.1 26.2 25.2 25.2 25.2 25.6 26.5 28.0 29.1 28.5 26.6 24.9 24.8 25.3 25.4 25.5 25.4 25.3 24.6 23.6 34.7 35.1 40.5 44.3 40.3 33.0 27.8 25.2 25.2 25.7 25.9 26.4 27.1 28.0 28.6 28.0 26.4 25.0 24.9 25.6 25.8 25.8 25.3 24.8 23.8 22.9 34.8 35.4 40.0 44.0 40.5 31.8 26.2 24.8 25.0 25.1 25.2 26.0 26.8 27.3 27.2 26.5 25.2 24.2 24.0 24.8 25.2 25.0 24.7 24.1 23.0 22.1 33.6 34.1 38.5 42.9 40.0 30.7 25.0 24.1 24.1 23.9 23.9 24.9 25.7 25.9 25.3 24.1 23.2 22.9 22.9 23.8 24.2 23.8 23.6 23.0 22.1 21.0 
</DataArray>
</PointData>
</Piece>
</ImageData>
</VTKFile>
