<?xml version="1.0"?>
<VTKFile type="PolyData" version="1.0" byte_order="LittleEndian" header_type="UInt64">
<PolyData>
<Piece NumberOfPoints="724" NumberOfVerts="0" NumberOfLines="0" NumberOfPolys="0">
    <Points>
        <DataArray type="Float32" NumberOfComponents="3" format="ascii">
        16.2961 6.3726 5.4865 16.2760 7.4549 3.5289 16.6139 7.6740 2.4529 16.3079 6.9837 3.7532 16.3888 7.4964 3.5353 16.6888 8.0435 1.7535 16.3701 7.5671 3.3321 16.3745 6.9499 4.1238 16.2800 7.0004 4.3961 16.4239 6.6913 4.6096 16.4027 6.8868 4.3089 16.4397 7.0012 3.8425 16.2947 6.4498 5.4899 16.4048 6.8239 4.2377 16.2846 6.7672 4.7917 16.1748 7.1158 3.9218 16.4858 8.1068 1.6676 16.2837 6.4458 5.4259 16.5886 8.0202 1.1278 16.3471 6.7555 4.4218 16.3041 6.2671 5.6633 16.2758 6.4824 5.3937 16.7812 8.1664 0.2530 16.2851 7.2561 4.1459 16.3799 6.6926 4.7793 16.4438 7.3652 3.0686 16.1880 6.0635 5.8593 16.1304 6.9311 4.5351 16.2765 7.3219 3.9691 16.5069 7.5199 3.6301 16.5766 8.6609 0.3229 16.2226 7.0793 4.4320 16.2285 6.7061 4.8768 16.2740 7.2291 4.4219 16.3497 7.3851 4.2218 16.3994 7.2628 2.6882 16.1997 6.7656 4.7927 16.3323 6.3657 5.2737 16.3605 7.1137 3.7449 16.4636 6.4772 5.1652 16.5371 8.4539 1.2645 16.3448 7.0961 3.0855 16.6434 8.3344 1.0309 16.4208 6.4587 5.1557 16.4040 6.3312 5.3536 16.4410 7.3396 3.1559 16.1729 6.0184 5.8339 16.3972 7.2902 3.6149 16.3803 7.2198 2.9595 16.6845 7.6195 2.7188 16.2132 7.1109 4.7064 16.4923 7.4486 2.8120 16.4504 6.5508 4.9561 16.8384 7.9465 1.4945 16.3517 6.4431 5.5247 16.3214 6.6971 4.7920 16.4415 8.4354 0.9615 16.2564 6.1149 5.6599 16.3257 6.1938 5.8283 15.3688 5.0637 6.6530 16.2343 5.8405 6.0708 16.1096 5.6657 5.9690 16.2596 6.8725 4.6209 16.2930 6.6503 5.2548 16.4111 6.7807 4.3459 16.4309 6.5301 5.1694 15.4019 4.7389 7.1008 16.2583 7.1858 4.6348 16.4456 6.4099 5.1734 16.3218 7.2897 3.7842 16.3933 8.1877 0.1830 16.3408 5.9483 5.7689 16.6063 7.9400 1.4629 16.3246 6.9795 4.6849 16.5350 8.0531 0.2028 16.3213 6.7418 4.8764 15.4162 4.7801 6.9282 16.9406 8.3583 0.1672 16.4888 6.5473 5.2220 16.9481 8.8882 0.3140 16.4737 6.4719 5.5967 16.4073 5.9297 5.6343 16.5288 8.2828 0.2168 15.4707 4.8245 6.8892 16.5762 7.2870 2.9294 16.3601 5.4870 5.6451 16.3647 6.0149 5.5898 16.5025 6.6799 4.2999 15.6424 4.9844 6.4285 16.9329 7.6674 3.7091 16.3947 7.0418 4.0450 16.6945 7.8640 2.2963 15.6782 4.1937 7.1986 16.6916 8.2228 2.6942 16.3921 5.3300 5.6650 16.8061 7.7618 2.4101 16.6280 7.3339 3.7578 16.9782 8.8323 0.9161 16.4850 5.5642 5.8121 16.7898 7.9511 2.3179 16.5512 5.7005 5.7844 17.0275 7.8611 1.2078 16.6107 8.4442 1.0792 16.4078 6.8648 4.5515 16.5798 5.3218 5.6711 16.9098 8.5816 2.0190 16.5330 7.1361 4.5534 16.4830 6.7092 5.1307 17.2287 8.8123 0.7939 16.6426 5.1809 5.6762 16.3746 6.7763 4.8011 16.7953 7.7831 2.9225 16.5260 6.4728 5.5332 16.7159 7.9487 2.5387 17.0822 8.3901 0.1063 16.5391 5.1435 5.8329 17.1666 8.9369 0.7053 16.7955 7.9907 2.9897 17.1287 8.0524 0.5846 16.3803 6.7097 5.1126 16.5608 5.7503 6.2186 17.1502 8.5947 0.5970 17.3683 8.8628 0.5377 16.7133 7.4676 4.5476 16.5579 5.4007 6.2748 16.4795 6.2223 6.0522 16.6720 7.3963 4.7721 17.0786 8.8743 1.1832 17.1322 8.6824 1.5165 17.0980 8.1642 1.1970 16.4961 6.0062 5.9153 16.4285 6.2933 6.1795 16.8546 7.3721 4.8694 17.0656 8.1429 2.0470 17.4347 9.0312 1.0088 17.0785 8.4934 0.9806 16.5493 5.8272 6.0456 16.6969 5.2840 6.3963 16.8808 8.6915 0.2952 17.2568 8.9409 0.9258 16.4620 5.8510 6.3261 16.5856 4.9066 6.3683 16.4047 6.6642 5.7032 16.2027 4.2464 7.2202 16.5128 5.9086 6.1068 16.9839 7.5166 4.9736 17.1449 7.7100 4.7212 17.6087 9.0419 0.3210 16.4154 6.2056 6.2165 16.8205 7.2692 4.9613 16.8124 8.5707 1.0551 16.7209 7.3257 5.0687 17.0098 8.1419 2.0923 17.0625 7.7092 4.6320 17.2746 8.9791 0.9626 16.9936 8.8880 0.7509 16.9278 8.0734 1.5029 17.5401 8.9133 1.6135 17.5927 8.9806 0.2382 17.2102 8.4743 0.8299 16.8715 8.1490 1.0324 17.4842 9.0010 1.7488 17.0865 8.5123 2.3303 16.9961 8.3178 3.3888 16.7803 7.3337 5.0901 17.0551 7.4395 5.0264 16.9301 7.4431 5.0492 16.8873 7.2659 4.9703 16.6302 5.5579 6.9370 17.0520 7.5055 5.2144 16.9995 7.9755 3.0203 16.6958 6.9170 5.7362 16.5891 6.9094 5.6959 16.8596 8.3115 0.9569 16.8359 5.2344 6.9238 17.0714 8.6261 3.0022 16.7154 5.3869 6.9738 16.9031 8.1173 2.2030 17.1361 8.2823 0.1374 17.1884 8.8403 1.7993 17.0734 8.1408 1.2730 17.3047 7.7292 4.7456 16.2568 6.4101 6.5964 16.9010 8.0879 3.1702 17.0073 8.3122 4.0377 16.8349 8.3987 0.7653 17.1945 7.5121 5.4630 17.3426 9.1177 0.8769 17.0036 8.4029 3.8287 16.4389 6.7959 5.9793 17.0836 8.1132 4.4199 17.0441 8.5141 3.7273 16.9114 8.1684 1.2088 17.0473 4.9165 7.2163 16.8421 8.0583 3.5485 16.9849 7.9456 3.5083 17.1415 7.3696 5.2034 17.4064 8.9876 1.8124 16.9309 7.2729 5.5766 16.7917 8.9840 0.3378 16.9797 7.8506 4.1459 17.1718 7.7474 5.2547 16.8988 7.8806 3.2490 17.0378 7.9551 4.7494 16.9858 8.4775 3.7827 16.8755 8.1260 4.0437 17.2062 8.8205 2.0987 17.0365 8.1319 2.7175 16.9602 8.6821 0.9941 16.9134 8.8644 1.3302 16.5629 3.9294 7.6486 16.2912 6.1971 6.7343 16.8198 8.6613 0.6965 16.5466 4.2693 7.5278 16.7619 8.5588 1.6641 16.9556 7.2255 5.4517 16.7941 8.7620 0.6630 16.7782 8.7355 1.8338 16.3820 6.6448 6.3728 17.0343 8.2713 3.5992 16.8568 7.8339 4.2700 16.6833 8.3323 2.8837 16.9089 8.2315 3.2751 17.0386 7.1497 5.6858 17.4023 8.9148 1.9541 16.9724 7.0211 5.9325 17.4040 8.9616 1.7073 17.3995 8.5098 0.0946 17.0382 8.1344 4.8149 16.2566 6.4575 6.6370 17.0657 8.0491 4.3759 17.0024 8.1542 4.3056 16.3158 6.5495 6.5735 16.6945 8.1969 0.1955 16.9794 7.1831 5.8899 17.2562 8.9817 0.3848 16.9495 8.3501 3.4318 16.7811 5.0640 7.4121 16.7667 8.7116 2.4913 16.9714 7.8285 5.3377 16.4071 6.7407 6.3823 16.9846 8.7646 2.1557 16.2862 6.8265 6.0624 17.1576 8.5953 1.5020 16.3303 8.1709 0.7469 16.6755 7.3816 5.7116 16.2774 8.5947 0.7426 16.2347 6.1786 7.0573 16.4073 7.1330 5.9616 16.2976 6.3320 6.9471 16.6704 8.6564 2.3944 17.0465 8.3359 1.4714 16.6680 5.1079 7.5110 16.7379 7.7590 5.1764 16.2593 8.5066 1.3769 16.7928 8.8569 0.8877 16.5776 8.1246 4.2819 16.8668 8.2521 3.6616 17.1557 8.5175 1.9305 16.8315 7.9551 4.4715 16.1086 6.5551 6.6883 16.5267 7.8722 4.1489 17.0021 7.6563 4.8851 15.9940 6.6247 6.5722 16.4845 8.1097 3.4133 16.8633 7.5330 5.5829 16.1283 6.3087 7.0700 16.5218 8.4648 2.8465 17.4150 8.7387 0.2658 16.9002 7.7498 5.1018 16.7597 8.1520 0.4006 16.3894 8.7721 1.2306 16.8366 8.2316 3.0654 16.6423 7.8129 4.9924 16.1468 7.8725 3.2032 16.0811 8.0924 0.7343 17.3194 8.5058 0.7881 16.8424 8.1546 2.7407 16.3541 8.3818 2.8948 16.7958 8.4855 2.3751 16.6869 8.1652 3.5283 16.1853 8.0905 3.1526 16.2815 8.3248 2.6695 16.0846 6.5342 6.7261 16.3048 8.0693 1.7794 16.4326 7.3559 5.8021 16.6601 7.2263 5.5727 16.8625 7.7214 5.0498 17.3636 8.5422 0.5303 16.2003 8.1997 2.7612 17.1890 8.6731 0.6903 17.0386 8.3578 1.6846 15.9861 6.9278 5.9853 16.5613 7.8211 4.6616 16.1015 7.9785 2.6586 15.8873 8.4267 0.8563 16.4301 7.5905 5.1850 16.3051 8.0791 3.1571 16.3460 8.1456 1.8487 17.0081 8.5388 1.5138 16.0868 8.4052 1.9066 16.2852 8.7050 1.4035 15.9962 8.5239 0.3369 16.6507 8.0397 3.4685 15.8573 8.0837 0.9777 17.0706 8.2929 1.1574 16.7017 7.3583 5.6126 16.7300 8.6035 1.6754 16.1120 8.0515 0.9982 16.6949 8.5955 1.2834 16.1754 8.5330 1.4824 16.9857 8.2407 1.0142 16.1275 7.7893 3.4601 16.5213 7.2038 5.8771 17.0752 8.3961 1.6934 16.1283 6.7654 6.4635 15.8288 6.5260 6.5297 16.2429 8.3582 2.6727 16.9290 8.6056 1.2813 16.2957 7.4058 5.1495 16.7825 7.7406 3.8603 16.3840 7.5563 5.0079 16.1960 7.3448 5.3598 16.8830 7.9065 2.6102 15.9704 6.7896 6.3239 16.0046 6.0668 7.0779 17.0805 8.1877 0.2984 16.8329 7.9733 1.7699 17.0891 7.9898 1.4933 17.0563 8.4559 1.5784 15.7723 6.3868 6.5089 16.9065 7.8429 3.5185 16.0041 8.6522 0.6275 16.6796 7.6481 3.8625 16.3731 7.3005 5.8432 16.4866 7.7883 4.9490 17.3619 8.5664 0.4754 16.7478 7.8299 4.4791 16.6600 8.7185 0.9305 16.9574 7.7468 3.8668 17.2976 8.4286 1.1067 16.4647 8.1349 3.6998 15.9339 4.7718 7.6146 16.5618 7.7119 4.8698 17.3229 8.3141 0.9696 16.8992 7.7809 3.7176 16.6167 8.9297 0.0846 17.1262 8.5524 0.4896 17.1094 8.1868 1.1747 16.2921 8.3488 2.7669 16.4199 8.1430 1.3087 16.3658 7.9154 3.0085 15.7039 6.2999 6.5947 16.2747 8.8392 0.6824 17.3446 8.4714 0.5707 16.4053 7.4318 5.0895 16.5178 8.2325 0.4219 16.1539 8.0596 2.7831 17.2488 8.0789 1.5377 16.8491 8.2265 2.7310 16.5111 7.4463 5.4637 16.3037 7.7238 4.6427 16.5841 8.9406 0.2839 16.2849 8.1556 1.6792 17.3867 8.4919 0.7352 17.0666 7.6222 3.6372 17.1187 7.9217 0.2688 15.7167 6.4384 6.6192 15.9872 8.8883 0.3630 16.9901 7.5345 3.7645 17.2645 8.5636 0.8742 16.9136 7.7932 1.1079 16.2244 7.3659 4.9591 16.8081 7.3748 4.4052 15.9014 8.9183 0.0322 16.8067 8.1799 0.5604 16.6487 8.4551 2.2743 15.9495 8.2853 0.1106 16.3017 8.0628 3.8171 16.9086 7.5049 4.7547 16.2855 6.8906 6.2997 16.2730 7.4597 4.9926 16.2157 6.4128 6.8075 17.1670 7.9765 0.4235 15.8534 6.4526 6.7063 16.8380 8.4504 2.3452 16.2550 6.3024 6.8216 17.0583 8.2274 1.9844 16.1150 8.5615 1.4535 16.3361 8.0363 2.8052 17.0673 7.5934 4.4172 16.8347 8.1758 3.2439 16.4324 7.8837 4.0094 15.9653 8.4142 0.3671 16.8025 7.0476 5.3505 16.2949 8.1061 3.2768 16.4280 7.3373 5.6990 16.4958 8.1225 1.0376 16.7072 9.0415 0.1433 16.5653 6.6943 6.0006 16.1718 8.5481 1.8857 16.4172 7.2142 5.5943 16.2823 8.3403 2.8956 16.0386 5.6020 7.3710 17.2550 7.9536 2.2793 16.3814 8.2431 1.8046 15.9495 8.3784 0.9704 16.9877 8.0092 2.7926 16.8120 7.9994 2.3489 16.5073 8.4879 2.6682 16.2018 7.1486 5.4525 17.4023 8.4600 1.0218 16.3339 6.7000 6.3279 16.7120 7.7680 0.3972 16.5047 7.7079 3.6643 16.3738 8.0383 3.6043 16.7922 7.4127 4.5020 17.2022 7.8205 3.0996 16.3599 6.5409 6.4560 16.2385 7.7390 3.6666 17.5231 8.3204 0.1904 16.9055 8.9993 0.5605 16.8447 7.6875 4.6882 16.3420 6.7686 5.9812 15.9262 8.7809 0.3365 16.9933 7.3442 5.2040 16.1377 6.8411 6.1601 16.3797 7.9381 4.1516 16.5499 7.6383 2.2846 16.0554 6.0529 7.0980 16.8526 7.6640 4.2965 17.1215 8.5346 2.1458 16.0248 8.5552 0.8168 17.1577 8.3649 2.2858 17.2954 8.3170 2.3511 16.5493 7.3554 5.3502 16.4466 7.7940 4.3849 16.5587 5.0090 7.5519 16.3261 6.1214 7.1322 17.4472 8.5383 1.1163 17.5306 7.9889 0.7506 17.0767 8.7712 1.3238 17.3608 8.4769 1.7617 16.2875 6.4974 6.5659 17.2754 7.4752 4.3067 17.2914 8.0824 2.5329 16.4382 6.1017 6.8737 17.0088 9.0286 0.3101 16.4441 8.6835 1.5376 17.3374 7.7802 2.3838 16.8529 7.2840 4.5091 17.1079 7.6595 3.8369 17.0065 7.7630 4.3401 17.3864 7.9241 2.5467 16.7845 4.5413 7.5620 16.7252 7.5208 4.8642 16.7871 7.4290 5.4363 16.8950 7.2123 4.9679 16.7596 7.6490 3.5978 17.0881 7.8639 4.0975 16.9855 6.8503 5.4745 16.5452 6.9624 5.8095 16.1779 8.9553 0.7351 16.9617 8.4181 2.9330 16.6681 5.9578 6.8690 16.8882 6.3622 6.2627 16.3677 8.2989 0.9014 16.7281 6.1568 6.7079 16.5762 6.8747 6.0232 16.9119 6.7595 5.8173 17.4885 8.1086 1.1430 16.4581 6.2410 6.7097 17.4053 8.0005 2.2399 16.5815 6.0858 6.7511 17.1466 7.5915 4.5929 17.4374 8.2997 2.4371 17.7118 8.3525 1.1895 16.7975 7.5997 5.2086 16.4414 7.8311 3.1733 16.4237 8.6802 2.0376 17.3113 8.5466 2.3083 17.1342 6.3205 6.2224 16.2461 8.5435 2.1389 16.1808 8.9564 1.2914 17.1472 8.0082 1.8184 16.7991 7.5920 4.2783 17.2491 5.1365 7.0826 16.4123 7.9474 1.5307 16.3086 8.1033 2.2707 17.0679 7.4850 3.7080 16.8821 8.1155 1.2102 17.4746 7.9309 1.7717 16.9866 8.2207 3.5433 17.3173 7.5471 4.3900 16.6880 9.0032 1.4405 16.4684 8.7338 2.0156 16.4186 8.0423 3.6250 16.6184 6.6800 6.2154 17.0040 8.2678 3.6716 17.3259 8.0893 3.3192 16.7490 7.0642 5.8696 16.7709 8.5943 2.8960 17.2644 9.1144 1.4148 16.5167 6.2429 6.6846 17.0088 7.6585 3.9587 16.6065 7.7624 4.2567 16.1305 8.8018 1.6410 16.6628 7.8546 1.6651 17.2947 8.1100 3.1720 16.5773 8.2131 1.3556 16.1542 8.5783 1.5288 17.2817 7.9625 1.2228 16.8332 7.6956 3.3083 17.4045 8.0538 3.1848 17.6560 8.3869 2.6703 17.0883 6.8570 5.8566 16.9600 8.4795 3.3973 17.5142 8.7640 1.8142 16.7115 9.0525 1.5655 16.9228 7.5532 4.4482 16.5009 8.0000 4.0738 16.6950 9.1308 1.7297 17.1154 3.3873 7.7453 17.0203 6.6807 5.9829 16.4752 9.1933 1.4648 16.4587 8.0875 3.1101 16.7660 7.6726 5.1895 16.8253 8.0058 4.4507 16.8543 8.8444 2.2780 17.4416 7.6365 4.2426 17.0801 4.5680 7.4876 17.1028 4.7328 7.3981 16.5430 8.3435 3.3978 16.6297 7.9533 2.6324 17.3247 7.8445 2.8193 16.9020 7.3948 5.7381 16.8207 8.7025 3.0307 16.5890 8.2848 2.5914 16.5881 7.8867 3.6813 17.2061 9.0716 2.1008 17.1521 6.3108 6.4261 17.0941 7.9905 1.9533 16.7220 7.9608 4.4114 16.8113 7.9673 2.9151 16.8618 7.4264 5.6644 16.1874 8.9103 1.8717 17.2021 6.5154 6.1402 16.5866 7.8655 2.7975 17.3367 7.4186 5.4189 16.9376 9.1284 2.3040 16.5297 8.2022 3.1710 17.2299 8.0901 3.9796 17.2133 8.0709 2.7235 16.3223 8.2897 2.6185 16.6943 6.0855 6.9111 17.4011 7.5507 4.8382 16.1980 8.3851 2.9030 16.4861 8.1709 2.1991 17.3825 7.9841 4.0674 16.5034 9.0802 2.5138 16.9949 8.6842 3.2428 16.7231 6.5048 6.6407 17.0592 6.6138 6.4077 17.5629 8.6502 2.4067 17.0410 7.8180 5.3996 16.2219 8.3618 3.0922 17.3626 7.9029 3.8220 16.6511 8.9087 2.8878 17.4041 3.7473 7.9222 16.9122 7.9460 2.4702 16.5884 8.5392 3.6304 16.8139 7.7166 4.5366 17.4323 3.4248 8.0213 17.5847 8.2974 2.9982 16.7887 7.7755 3.4901 16.8172 5.7655 7.1068 16.8723 5.6988 7.1487 17.2026 7.3539 5.9705 16.6924 6.1062 6.9466 16.9632 7.6155 5.3724 17.0857 5.5182 7.2288 16.4593 7.9758 4.4243 16.7591 8.2606 2.8289 16.7271 6.4783 6.7463 17.2642 8.5033 3.8503 17.2756 7.9381 4.9056 17.4524 8.9427 2.6033 17.3005 9.0959 2.3432 16.9204 6.6000 6.6217 16.4992 8.3870 3.8125 17.4263 7.9166 4.0716 16.8457 7.8391 5.4399 17.0344 6.4490 6.5596 17.3146 8.9716 2.6511 16.8429 7.8370 3.6249 17.3414 8.3840 2.4886 17.0593 9.0499 2.9089 16.2723 8.2307 3.2758 16.6321 8.0444 3.8442 16.9823 6.1486 6.9054 16.2435 8.7551 2.7205 17.2621 7.4669 5.9364 17.2840 8.2791 3.9748 17.2497 6.9899 6.1749 16.3254 8.5090 3.6780 17.3471 8.5053 3.9062 17.5566 8.7677 3.1204 16.7956 6.0924 7.1750 16.9598 6.8570 6.6286 17.4559 8.2614 4.0563 17.3824 8.0975 3.4498 17.3881 8.8589 2.7330 17.2228 7.5653 5.8821 16.3147 8.3622 3.9587 17.2216 5.2855 7.4239 17.1353 7.1778 6.3773 16.6742 8.1155 3.6034 16.9551 8.3231 4.5981 16.8766 6.8516 6.6431 17.1573 8.6151 3.9769 17.0195 8.2634 3.4150 16.7755 8.6546 4.0873 17.3367 8.7701 3.0251 16.3332 8.4877 3.7014 16.7645 7.7206 5.4953 16.4533 8.0162 3.6991 16.5895 8.9507 3.4473 17.4107 8.2766 4.2745 16.9569 9.2508 3.0728 17.3804 8.2651 3.5249 16.8614 8.3684 4.6238 16.5576 8.4686 4.2945 17.2850 8.2672 3.0339 17.2677 8.1106 4.7229 16.6684 8.8874 3.6345 17.1266 7.6814 4.8208 16.6804 7.9973 5.0344 17.4040 8.5860 2.9648 17.4068 8.2763 4.0079 16.9565 5.9861 7.0819 16.8427 8.8804 3.6469 17.2976 8.3182 3.2840 16.4607 8.6338 4.0454 17.2542 8.6171 3.6226 16.3021 9.0280 3.3175 17.0186 6.5449 6.7776 16.7434 6.5892 7.0908 16.7098 7.8580 5.6860 17.0605 6.9953 6.7227 16.9409 6.7786 6.9462 16.4853 7.8691 5.3070 16.7019 7.8480 5.7181 17.1278 7.0798 6.6099 16.8632 8.3042 3.6681 17.1513 7.2337 6.5350 16.8136 9.1061 3.1830 16.4834 8.1933 3.3464 16.5968 9.3496 3.1203 16.2187 8.2524 4.3282 16.6922 8.9403 3.7608 17.1155 8.9751 3.5552 16.8617 7.6035 5.3594 16.7952 7.9147 4.5695 16.8278 7.8357 4.7681 16.7498 8.2985 4.7927 17.2869 8.8491 3.1636 17.5028 8.7188 3.4453 17.0943 6.8037 6.7825 16.3404 8.4301 4.1724 17.0018 6.3097 7.2158 16.9528 7.9031 5.1104 16.4071 9.0547 3.4861 17.2065 7.9304 5.2315 16.7024 7.4544 6.2239 16.8339 6.6579 7.1927 16.5207 7.6131 5.8860 17.2769 8.2836 3.9991 17.3309 8.6817 3.2736 16.8000 6.6568 7.1467 16.5601 8.3424 4.8143 16.9059 8.8685 4.1011 17.3449 8.6924 3.2817 17.0493 6.7586 6.7888 16.8469 7.2885 6.6221 16.6510 8.0644 3.9132 16.8861 8.0200 5.4725 17.1256 7.5677 6.2909 16.8596 8.0632 4.2414 16.2537 8.4163 4.5285 16.4745 7.7555 5.6806 16.3771 8.6331 4.2585 16.6037 8.2974 5.0006 16.9392 7.8440 4.6203 16.4975 9.1915 3.8580 16.4246 7.8240 4.9447 16.4370 9.1216 3.6525 17.2210 8.3499 4.2567 17.0513 7.6133 6.0763 17.2328 8.0740 4.8806 17.0166 8.0788 5.3595 16.9612 7.8088 4.7518 16.3772 8.2349 4.8960 17.3527 8.6656 3.9087 16.4757 8.2966 4.9360 16.9300 8.5486 4.6989 16.5874 8.1658 4.0067 17.0527 7.6244 5.7121 16.5824 8.2985 4.9627 17.2577 8.5635 4.1743 17.0169 6.8441 7.0495 16.0534 8.8158 3.9980 16.9077 7.4984 6.2483 16.8241 8.1857 3.9727 16.6278 7.2400 6.7484 16.4457 8.2045 5.1059 16.8177 7.8135 6.0337 16.2054 8.4027 4.7307 16.4452 7.2569 6.4562 16.8607 7.9584 4.7643 17.1691 8.5976 4.4770 16.9419 7.5931 6.3314 16.4718 8.0682 4.5759 16.6460 7.9015 4.7819 16.1937 7.7850 5.0740 
        </DataArray>
    </Points>
    <PointData>
        <DataArray type="Float32" Name="tag" format="ascii">
            131.0000 219.0000 351.0000 379.0000 455.0000 935.0000 1023.0000 1099.0000 1119.0000 1171.0000 1211.0000 1551.0000 1791.0000 1803.0000 1855.0000 1859.0000 1907.0000 2035.0000 2047.0000 2083.0000 2191.0000 2491.0000 2563.0000 2623.0000 3087.0000 3091.0000 3271.0000 3423.0000 3607.0000 3663.0000 3711.0000 3775.0000 3795.0000 3819.0000 3883.0000 3943.0000 4067.0000 4127.0000 4183.0000 4187.0000 4395.0000 4515.0000 4551.0000 4555.0000 4583.0000 4615.0000 4643.0000 4751.0000 4843.0000 4891.0000 4947.0000 5015.0000 5035.0000 5107.0000 5115.0000 5271.0000 5299.0000 5455.0000 5643.0000 5655.0000 5703.0000 5815.0000 5867.0000 5891.0000 6055.0000 6207.0000 6431.0000 6663.0000 6671.0000 6795.0000 6851.0000 6911.0000 7147.0000 7175.0000 7427.0000 7495.0000 7575.0000 7767.0000 7783.0000 7867.0000 7883.0000 7919.0000 7983.0000 8095.0000 8199.0000 8263.0000 8291.0000 8367.0000 8603.0000 8615.0000 8803.0000 8815.0000 8903.0000 9019.0000 9027.0000 9039.0000 9255.0000 9295.0000 9407.0000 9459.0000 9471.0000 9639.0000 9751.0000 9799.0000 9963.0000 10131.0000 10155.0000 10279.0000 10303.0000 10311.0000 10419.0000 10495.0000 10515.0000 10531.0000 10583.0000 10611.0000 10691.0000 10763.0000 11015.0000 11051.0000 11283.0000 11307.0000 11327.0000 11351.0000 11427.0000 11435.0000 11439.0000 11471.0000 11551.0000 11567.0000 11759.0000 11855.0000 12011.0000 12027.0000 12127.0000 12143.0000 12171.0000 12211.0000 12219.0000 12239.0000 12279.0000 12283.0000 12303.0000 12343.0000 12359.0000 12395.0000 12411.0000 12459.0000 12631.0000 12719.0000 12939.0000 13023.0000 13075.0000 13083.0000 13119.0000 13179.0000 13415.0000 13647.0000 13727.0000 13771.0000 13775.0000 13787.0000 13811.0000 13847.0000 13875.0000 14087.0000 14151.0000 14179.0000 14215.0000 14255.0000 14295.0000 14327.0000 14491.0000 14555.0000 14587.0000 14615.0000 14763.0000 14899.0000 14903.0000 14911.0000 15039.0000 15083.0000 15139.0000 15279.0000 15283.0000 15399.0000 15407.0000 15455.0000 15567.0000 15575.0000 15671.0000 15695.0000 15783.0000 15847.0000 15923.0000 15935.0000 15971.0000 16007.0000 16031.0000 16087.0000 16099.0000 16135.0000 16147.0000 16187.0000 16327.0000 16387.0000 16539.0000 16703.0000 16807.0000 16811.0000 16895.0000 17007.0000 17103.0000 17199.0000 17231.0000 17235.0000 17375.0000 17555.0000 17567.0000 17651.0000 17795.0000 17819.0000 17903.0000 17919.0000 17947.0000 17955.0000 18027.0000 18187.0000 18279.0000 18383.0000 18511.0000 18763.0000 18851.0000 19115.0000 19143.0000 19187.0000 19231.0000 19307.0000 19347.0000 19395.0000 19547.0000 19923.0000 20267.0000 20315.0000 20519.0000 20707.0000 20727.0000 20847.0000 20955.0000 21071.0000 21147.0000 21239.0000 21271.0000 21319.0000 21323.0000 21355.0000 21383.0000 21439.0000 21447.0000 21615.0000 21671.0000 21715.0000 21719.0000 21751.0000 21759.0000 21819.0000 21911.0000 21919.0000 21975.0000 22071.0000 22107.0000 22139.0000 22311.0000 22403.0000 22467.0000 22595.0000 22815.0000 22835.0000 23071.0000 23239.0000 23255.0000 23315.0000 23339.0000 23355.0000 23367.0000 23371.0000 23607.0000 23623.0000 23675.0000 23731.0000 23747.0000 23755.0000 23767.0000 23779.0000 23847.0000 23855.0000 23859.0000 23943.0000 23951.0000 23995.0000 24011.0000 24079.0000 24091.0000 24127.0000 24151.0000 24191.0000 24223.0000 24247.0000 24307.0000 24367.0000 24379.0000 24415.0000 24463.0000 24467.0000 24555.0000 24699.0000 24707.0000 24743.0000 24783.0000 24791.0000 24847.0000 24899.0000 24943.0000 25011.0000 25135.0000 25151.0000 25227.0000 25243.0000 25263.0000 25287.0000 25303.0000 25403.0000 25435.0000 25579.0000 25603.0000 25623.0000 25639.0000 25655.0000 25675.0000 25739.0000 25823.0000 25859.0000 25915.0000 25971.0000 25999.0000 26039.0000 26051.0000 26087.0000 26151.0000 26175.0000 26187.0000 26207.0000 26219.0000 26259.0000 26303.0000 26323.0000 26375.0000 26471.0000 26495.0000 26507.0000 26599.0000 26747.0000 26751.0000 26815.0000 26867.0000 26875.0000 26879.0000 26923.0000 26955.0000 26959.0000 27055.0000 27083.0000 27091.0000 27135.0000 27195.0000 27231.0000 27291.0000 27319.0000 27327.0000 27351.0000 27387.0000 27499.0000 27527.0000 27535.0000 27587.0000 27635.0000 27723.0000 27735.0000 27767.0000 27967.0000 27991.0000 28031.0000 28095.0000 28103.0000 28151.0000 28199.0000 28203.0000 28207.0000 28219.0000 28231.0000 28295.0000 28323.0000 28351.0000 28435.0000 28451.0000 28467.0000 28471.0000 28479.0000 28503.0000 28523.0000 28535.0000 28551.0000 28619.0000 28627.0000 28675.0000 28779.0000 28843.0000 28875.0000 28883.0000 28923.0000 28935.0000 28959.0000 29019.0000 29159.0000 29167.0000 29239.0000 29267.0000 29319.0000 29407.0000 29411.0000 29439.0000 29511.0000 29539.0000 29571.0000 29579.0000 29635.0000 29639.0000 29691.0000 29719.0000 29823.0000 29875.0000 29895.0000 29951.0000 29991.0000 30023.0000 30075.0000 30087.0000 30127.0000 30251.0000 30283.0000 30303.0000 30379.0000 30395.0000 30583.0000 30607.0000 30627.0000 30655.0000 30823.0000 30827.0000 30863.0000 30895.0000 30963.0000 31099.0000 31115.0000 31167.0000 31199.0000 31219.0000 31235.0000 31247.0000 31287.0000 31427.0000 31607.0000 31619.0000 31631.0000 31639.0000 31671.0000 31675.0000 31679.0000 31723.0000 31731.0000 31759.0000 31763.0000 31771.0000 31787.0000 31855.0000 31879.0000 31915.0000 31943.0000 31951.0000 31967.0000 31979.0000 32063.0000 32091.0000 32111.0000 32163.0000 32199.0000 32255.0000 32335.0000 32479.0000 32511.0000 32547.0000 32567.0000 32587.0000 32607.0000 32611.0000 32667.0000 32747.0000 32779.0000 32795.0000 32851.0000 32859.0000 32895.0000 32943.0000 32947.0000 32979.0000 33031.0000 33063.0000 33079.0000 33091.0000 33103.0000 33107.0000 33151.0000 33183.0000 33283.0000 33343.0000 33351.0000 33411.0000 33435.0000 33499.0000 33563.0000 33571.0000 33583.0000 33599.0000 33843.0000 33867.0000 33891.0000 33903.0000 33911.0000 33943.0000 34087.0000 34103.0000 34115.0000 34135.0000 34167.0000 34183.0000 34291.0000 34295.0000 34331.0000 34423.0000 34543.0000 34571.0000 34631.0000 34675.0000 34687.0000 34791.0000 34859.0000 34935.0000 34975.0000 35111.0000 35187.0000 35219.0000 35239.0000 35271.0000 35311.0000 35359.0000 35367.0000 35383.0000 35399.0000 35411.0000 35487.0000 35495.0000 35535.0000 35639.0000 35659.0000 35675.0000 35715.0000 35779.0000 35803.0000 35855.0000 35959.0000 35963.0000 35995.0000 36071.0000 36087.0000 36135.0000 36223.0000 36235.0000 36331.0000 36359.0000 36403.0000 36435.0000 36495.0000 36535.0000 36539.0000 36547.0000 36599.0000 36615.0000 36691.0000 36699.0000 36711.0000 36723.0000 36791.0000 36795.0000 36803.0000 36887.0000 36919.0000 36923.0000 36935.0000 36947.0000 36959.0000 37043.0000 37151.0000 37171.0000 37263.0000 37327.0000 37363.0000 37387.0000 37503.0000 37555.0000 37583.0000 37631.0000 37647.0000 37679.0000 37699.0000 37731.0000 37735.0000 37759.0000 37831.0000 37843.0000 37987.0000 38003.0000 38107.0000 38127.0000 38183.0000 38203.0000 38219.0000 38247.0000 38359.0000 38395.0000 38399.0000 38419.0000 38451.0000 38455.0000 38479.0000 38487.0000 38491.0000 38523.0000 38535.0000 38583.0000 38591.0000 38627.0000 38711.0000 38735.0000 38755.0000 38775.0000 38779.0000 38879.0000 38887.0000 38927.0000 38935.0000 38959.0000 38995.0000 39019.0000 39063.0000 39147.0000 39155.0000 39163.0000 39283.0000 39331.0000 39383.0000 39407.0000 39415.0000 39447.0000 39495.0000 39535.0000 39567.0000 39575.0000 39651.0000 39655.0000 39659.0000 39691.0000 39699.0000 39843.0000 39903.0000 39907.0000 39943.0000 39963.0000 40103.0000 40119.0000 40191.0000 40211.0000 40263.0000 40323.0000 40331.0000 40335.0000 40343.0000 40363.0000 40375.0000 40399.0000 40439.0000 40535.0000 40551.0000 40663.0000 40675.0000 40703.0000 40711.0000 40727.0000 40747.0000 40855.0000 40963.0000 41095.0000 41147.0000 41155.0000 41183.0000 41231.0000 41359.0000 41367.0000 41391.0000 41447.0000 41467.0000 41479.0000 41499.0000 41515.0000 41551.0000 
         </DataArray>
    </PointData>
</Piece>
</PolyData>
</VTKFile>