<?xml version="1.0"?>
<VTKFile type="RectilinearGrid" version="1.0" byte_order="LittleEndian" header_type="UInt64">
<RectilinearGrid WholeExtent="0 25 0 25 0 15">
<Piece Extent="0 25 0 25 0 15">
<Coordinates>
<DataArray type="Float64" Name="Array X-Axis" format="ascii" RangeMin="0.0" RangeMax="15.0">
0.0 0.6 1.2 1.8 2.4 3.0 3.6 4.2 4.8 5.4 6.0 6.6 7.2 7.8 8.4 9.0 9.6 10.2 10.8 11.4 12.0 12.6 13.2 13.8 14.4 15.0 
</DataArray>
<DataArray type="Float64" Name="Array Y-Axis" format="ascii" RangeMin="0.0" RangeMax="15.0">
0.0 0.6 1.2 1.8 2.4 3.0 3.6 4.2 4.8 5.4 6.0 6.6 7.2 7.8 8.4 9.0 9.6 10.2 10.8 11.4 12.0 12.6 13.2 13.8 14.4 15.0 
</DataArray>
<DataArray type="Float64" Name="Array Z-Axis" format="ascii" RangeMin="0.0" RangeMax="9.0">
0.0 0.6 1.2 1.8 2.4 3.0 3.6 4.2 4.8 5.4 6.0 6.6 7.2 7.8 8.4 9.0 
</DataArray>
</Coordinates>
<PointData>
<DataArray Name="SOOT DENSITY" NumberOfComponents="1" type="UInt8" format="ascii">
0 0 0 0 0 0 0 0 0 0 0 0 0 0 0 0 0 0 0 0 0 0 0 0 0 0 0 0 0 0 0 0 0 0 0 0 0 0 0 0 0 0 0 0 0 0 0 0 0 0 0 0 0 0 0 0 0 0 0 0 0 0 0 0 0 0 0 0 0 0 0 0 0 0 0 0 0 0 0 0 0 0 0 0 0 0 0 0 0 0 0 0 0 0 0 0 0 0 0 0 0 0 0 0 0 0 0 0 0 0 0 0 0 0 0 0 0 0 0 0 0 0 0 0 0 0 0 0 0 0 0 0 0 0 0 0 0 0 0 0 0 0 0 0 0 0 0 0 0 0 0 0 0 0 0 0 0 0 0 0 0 0 0 0 0 0 0 0 0 0 0 0 0 0 0 0 0 0 0 0 0 0 0 0 0 0 0 0 0 0 0 0 0 0 0 0 0 0 0 0 0 0 0 0 0 0 0 0 0 0 0 0 0 0 0 0 0 0 0 0 0 0 0 0 0 0 0 0 0 0 0 0 0 0 0 0 0 0 0 0 0 0 0 0 0 0 0 0 0 0 0 0 0 0 0 0 0 0 0 0 0 0 0 0 0 0 0 0 0 0 0 0 0 0 0 0 0 0 0 0 0 0 0 0 0 0 0 0 0 0 0 0 0 0 0 0 0 0 0 0 0 0 0 0 0 0 0 0 0 0 0 0 0 0 0 0 0 0 0 0 0 0 0 0 0 0 0 0 0 0 0 0 0 0 0 0 0 0 0 0 0 0 0 0 0 0 0 0 0 0 0 0 0 0 0 0 0 0 0 0 0 0 0 0 0 0 0 0 0 0 0 0 0 0 0 0 0 0 0 0 0 0 0 0 0 0 0 0 0 0 0 0 0 0 0 0 0 0 0 0 0 0 0 0 0 0 0 0 0 0 0 0 0 0 0 0 0 0 0 0 0 0 0 0 0 0 0 0 0 0 0 0 0 0 0 0 0 0 0 0 0 0 0 0 0 0 0 0 0 0 0 0 0 0 0 0 0 0 0 0 0 0 0 0 0 0 0 0 0 0 0 0 0 0 0 0 0 0 0 0 0 0 0 0 0 0 0 0 0 0 0 0 0 0 0 0 0 0 0 0 0 0 0 0 0 0 0 0 0 0 0 0 0 0 0 0 0 0 0 0 0 0 0 0 0 0 0 0 0 0 0 0 0 0 0 0 0 0 0 0 0 0 0 0 0 0 0 0 0 0 0 0 0 0 0 0 0 0 0 0 0 0 0 0 0 0 0 0 0 0 0 0 0 0 0 0 0 0 0 0 0 0 0 0 0 0 0 0 0 0 0 0 0 0 0 0 0 0 0 0 0 0 0 0 0 0 0 0 0 0 0 0 0 0 0 0 0 0 0 0 0 0 0 0 0 0 0 0 0 0 0 0 0 0 0 0 0 0 0 0 0 0 0 0 0 0 0 0 0 0 0 0 0 0 0 0 0 0 0 0 0 0 0 0 0 0 0 0 0 0 0 0 0 0 0 0 0 0 0 0 0 0 0 0 0 0 0 0 0 0 0 0 0 0 0 0 0 0 0 0 0 0 0 0 0 0 0 0 0 0 0 0 0 0 0 0 0 0 0 0 0 0 0 0 0 0 0 0 0 0 0 0 0 0 0 0 0 0 0 0 0 0 0 0 0 0 0 0 0 0 0 0 0 0 0 0 0 0 0 0 0 0 0 0 0 0 0 0 0 0 0 0 0 0 0 0 0 0 0 0 0 0 0 0 0 0 0 0 0 0 0 0 0 0 0 0 0 0 0 0 0 0 0 0 0 0 0 0 0 0 0 0 0 0 0 0 0 0 0 0 0 0 0 0 0 0 0 0 0 0 0 0 0 0 0 0 0 0 0 0 0 0 0 0 0 0 0 0 0 0 0 0 0 0 0 0 0 0 0 0 0 0 0 0 0 0 0 0 0 0 0 0 0 0 0 0 0 0 0 0 0 0 0 0 0 0 0 0 0 0 0 0 0 0 0 0 0 0 0 0 0 0 0 0 0 0 0 0 0 0 0 0 0 0 0 0 0 0 0 0 0 0 0 0 0 0 0 0 0 0 0 0 0 0 0 0 0 0 0 0 0 0 0 0 0 0 0 0 0 0 0 0 0 0 0 0 0 0 0 0 0 0 0 0 0 0 0 0 0 0 0 0 0 0 0 0 0 0 0 0 0 0 0 0 0 0 0 0 0 0 0 0 0 0 0 0 0 0 0 0 0 0 0 0 0 0 0 0 0 0 0 0 0 0 0 0 0 0 0 0 0 0 0 0 0 0 0 0 0 0 0 0 0 0 0 0 0 0 0 0 0 0 0 0 0 0 0 0 0 0 0 0 0 0 0 0 0 0 0 0 0 0 0 0 0 0 0 0 0 0 0 0 0 0 0 0 0 0 0 0 0 0 0 0 0 0 0 0 0 0 0 0 0 0 0 0 0 0 0 0 0 0 0 0 0 0 0 0 0 0 0 0 0 0 0 0 0 0 0 0 0 0 0 0 0 0 0 0 0 0 0 0 0 0 0 0 0 0 0 0 0 0 0 0 0 0 0 0 0 0 0 0 0 0 0 0 0 0 0 0 0 0 0 0 0 0 0 0 0 0 0 0 0 0 0 0 0 0 0 0 0 0 0 0 0 0 0 0 0 0 0 0 0 0 0 0 0 0 0 0 0 0 0 0 0 0 0 0 0 0 0 0 0 0 0 0 0 0 0 0 0 0 0 0 0 0 0 0 0 0 0 0 0 0 0 0 0 0 0 0 0 0 0 0 0 0 0 0 0 0 0 0 0 0 0 0 0 0 0 0 0 0 0 0 0 0 0 0 0 0 0 0 0 0 0 0 0 0 0 0 0 0 0 0 0 0 0 0 0 0 0 0 0 0 0 0 0 0 0 0 0 0 0 0 0 0 0 0 0 0 0 0 0 0 0 0 0 0 0 0 0 0 0 0 0 0 0 0 0 0 0 0 0 0 0 0 0 0 0 0 0 0 0 0 0 0 0 0 0 0 0 0 0 0 0 0 0 0 0 0 0 0 0 0 0 0 0 0 0 0 0 0 0 0 0 0 0 0 0 0 0 0 0 0 0 0 0 0 0 0 0 0 0 0 0 0 0 0 0 0 0 0 0 0 0 0 0 0 0 0 0 0 0 0 0 0 0 0 0 0 0 0 0 0 0 0 0 0 0 0 0 0 0 0 0 0 0 0 0 0 0 0 0 0 0 0 0 0 0 0 0 0 0 0 0 0 0 0 0 0 0 0 0 0 0 0 0 0 0 0 0 0 0 0 0 0 0 0 0 0 0 0 0 0 0 0 0 0 0 0 0 0 0 0 0 0 0 0 0 0 0 0 0 0 0 0 0 0 0 0 0 0 0 0 0 0 0 0 0 0 0 0 0 0 0 0 0 0 0 0 0 0 0 0 0 0 0 0 0 0 0 0 0 0 0 0 0 0 0 0 0 0 0 0 0 0 0 0 0 0 0 0 0 0 0 0 0 0 0 0 0 0 0 0 0 0 0 0 0 0 0 0 0 0 0 0 0 0 0 0 0 0 0 0 0 0 0 0 0 0 0 0 0 0 0 0 0 0 0 0 0 0 0 0 0 0 0 0 0 0 0 0 0 0 0 0 0 0 0 0 0 0 0 0 0 0 0 0 0 0 0 0 0 0 0 0 0 0 0 0 0 0 0 0 0 0 0 0 0 0 0 0 0 0 0 0 0 0 0 0 0 0 0 0 0 0 0 0 0 0 0 0 0 0 0 0 0 0 0 0 0 0 0 0 0 0 0 0 0 0 0 0 0 0 0 0 0 0 0 0 0 0 0 0 0 0 0 0 0 0 0 0 0 0 0 0 0 0 0 0 0 0 0 0 0 0 0 0 0 0 0 0 0 0 0 0 0 0 0 0 0 0 0 0 0 0 0 0 0 0 0 0 0 0 0 0 0 0 0 0 0 0 0 0 0 0 0 0 0 0 0 0 0 0 0 0 0 0 0 0 0 0 0 0 0 0 0 0 0 0 0 0 0 0 0 0 0 0 0 0 0 0 0 0 0 0 0 0 0 0 0 0 0 0 0 0 0 0 0 0 0 0 0 0 0 0 0 0 0 0 0 0 0 0 0 0 0 0 0 0 0 0 0 0 0 0 0 0 0 0 0 0 0 0 0 0 0 0 0 0 0 1 0 0 0 0 0 0 0 0 0 0 0 0 0 0 0 0 0 0 0 0 0 0 0 0 0 1 0 0 0 0 0 0 0 0 0 0 0 0 0 0 0 0 0 0 0 0 0 0 0 0 0 1 0 0 0 0 0 0 0 0 0 0 0 0 0 0 0 0 0 0 0 0 0 0 0 0 0 1 0 0 0 0 0 0 0 0 0 0 0 0 0 0 0 0 0 0 0 0 0 0 0 0 0 0 0 0 0 0 0 0 0 0 0 0 0 0 0 0 0 0 0 0 0 0 0 0 0 0 0 0 0 0 0 0 0 0 0 0 0 0 0 0 0 0 0 0 0 0 0 0 0 0 0 0 0 0 0 0 0 0 0 0 0 0 0 0 0 0 0 0 0 0 0 0 0 0 0 0 0 0 0 0 0 0 0 0 0 0 0 0 0 0 0 0 0 0 0 0 0 0 0 0 0 0 0 0 0 0 0 0 0 0 0 0 0 0 0 0 0 0 0 0 0 0 0 0 0 0 0 0 0 0 0 0 0 0 0 0 0 0 0 0 0 0 0 0 0 0 0 0 0 0 0 0 0 0 0 0 0 0 0 0 0 0 0 0 0 0 0 0 0 0 0 0 0 0 0 0 0 0 0 0 0 0 0 0 0 0 0 0 0 0 0 0 0 0 0 0 0 0 0 0 0 0 0 0 0 0 0 0 0 0 0 0 0 0 0 0 0 0 0 0 0 0 0 0 0 0 0 0 0 0 0 0 0 0 0 0 0 0 0 0 0 0 0 0 0 0 0 0 0 0 0 0 0 0 0 0 0 0 0 0 0 0 0 0 0 0 0 0 0 0 0 0 0 0 0 0 0 0 0 0 0 0 0 0 0 0 0 0 0 0 0 0 0 0 0 0 0 0 0 0 0 0 0 0 0 0 0 0 0 0 0 0 0 0 0 0 0 0 0 0 0 0 0 0 0 0 0 0 0 0 0 0 0 0 0 0 0 0 0 0 0 0 0 0 0 0 0 0 0 0 0 0 0 0 0 0 0 0 0 0 0 0 0 0 0 0 0 0 0 0 0 0 0 0 0 0 0 0 0 0 0 0 0 0 0 0 0 0 0 0 0 0 0 0 0 0 0 0 0 0 0 0 0 0 0 0 0 0 0 0 0 0 0 0 0 0 0 0 0 0 0 0 0 0 0 0 0 0 0 0 0 0 0 0 0 0 0 0 0 0 0 0 0 0 0 0 0 0 0 0 0 0 0 0 0 0 0 0 0 0 0 0 0 0 0 0 0 0 0 0 0 0 0 0 0 0 0 0 0 0 0 0 0 0 0 0 0 0 0 0 0 0 0 0 0 0 0 0 0 0 0 0 0 0 0 0 0 0 0 0 0 0 0 0 0 0 0 0 0 0 0 0 0 0 0 0 0 0 0 0 0 0 0 0 0 0 0 0 0 0 0 0 0 0 0 0 0 9 0 0 0 0 0 0 0 0 0 0 0 0 0 0 0 0 0 0 0 0 0 0 0 0 1 15 0 0 0 0 0 0 0 0 0 0 0 0 0 0 0 0 0 0 0 0 0 0 0 0 2 20 0 0 0 0 0 0 0 0 0 0 0 0 0 0 0 0 0 0 0 0 0 0 0 0 2 20 0 0 0 0 0 0 0 0 0 0 0 0 0 0 0 0 0 0 0 0 0 0 0 0 1 9 0 0 0 0 0 0 0 0 0 0 0 0 0 0 0 0 0 0 0 0 0 0 0 0 0 3 0 0 0 0 0 0 0 0 0 0 0 0 0 0 0 0 0 0 0 0 0 0 0 0 0 1 0 0 0 0 0 0 0 0 0 0 0 0 0 0 0 0 0 0 0 0 0 0 0 0 0 0 0 0 0 0 0 0 0 0 0 0 0 0 0 0 0 0 0 0 0 0 0 0 0 0 0 0 0 0 0 0 0 0 0 0 0 0 0 0 0 0 0 0 0 0 0 0 0 0 0 0 0 0 0 0 0 0 0 0 0 0 0 0 0 0 0 0 0 0 0 0 0 0 0 0 0 0 0 0 0 0 0 0 0 0 0 0 0 0 0 0 0 0 0 0 0 0 0 0 0 0 0 0 0 0 0 0 0 0 0 0 0 0 0 0 0 0 0 0 0 0 0 0 0 0 0 0 0 0 0 0 0 0 0 0 0 0 0 0 0 0 0 0 0 0 0 0 0 0 0 0 0 0 0 0 0 0 0 0 0 0 0 0 0 0 0 0 0 0 0 0 0 0 0 0 0 0 0 0 0 0 0 0 0 0 0 0 0 0 0 0 0 0 0 0 0 0 0 0 0 0 0 0 0 0 0 0 0 0 0 0 0 0 0 0 0 0 0 0 0 0 0 0 0 0 0 0 0 0 0 0 0 0 0 0 0 0 0 0 0 0 0 0 0 0 0 0 0 0 0 0 0 0 0 0 0 0 0 0 0 0 0 0 0 0 0 0 0 0 0 0 0 0 0 0 0 0 0 0 0 0 0 0 0 0 0 0 0 0 0 0 0 0 0 0 0 0 0 0 0 0 0 0 0 0 0 0 0 0 0 0 0 0 0 0 0 0 0 0 0 0 0 0 0 0 0 0 0 0 0 0 0 0 0 0 0 0 0 0 0 0 0 0 0 0 0 0 0 0 0 0 0 0 0 0 0 0 0 0 0 0 0 0 0 0 0 0 0 0 0 0 0 0 0 0 0 0 0 0 0 0 0 0 0 0 0 0 0 0 0 0 0 0 0 0 0 0 0 0 0 0 0 0 0 0 0 0 0 0 0 0 0 0 0 0 0 0 0 0 0 0 0 0 0 0 0 0 0 0 0 0 0 0 0 0 0 0 0 0 0 0 0 0 0 0 0 0 0 0 0 0 0 0 0 0 0 0 0 0 0 0 0 0 0 0 0 0 0 3 0 0 0 0 0 0 0 0 0 0 0 0 0 0 0 0 0 0 0 0 0 0 0 0 2 33 0 0 0 0 0 0 0 0 0 0 0 0 0 0 0 0 0 0 0 0 0 0 0 1 7 72 0 0 0 0 0 0 0 0 0 0 0 0 0 0 0 0 0 0 0 0 0 0 0 2 12 81 0 0 0 0 0 0 0 0 0 0 0 0 0 0 0 0 0 0 0 0 0 0 0 2 9 58 0 0 0 0 0 0 0 0 0 0 0 0 0 0 0 0 0 0 0 0 0 0 0 1 6 32 0 0 0 0 0 0 0 0 0 0 0 0 0 0 0 0 0 0 0 0 0 0 0 0 4 18 0 0 0 0 0 0 0 0 0 0 0 0 0 0 0 0 0 0 0 0 0 0 0 0 1 5 0 0 0 0 0 0 0 0 0 0 0 0 0 0 0 0 0 0 0 0 0 0 0 0 0 1 0 0 0 0 0 0 0 0 0 0 0 0 0 0 0 0 0 0 0 0 0 0 0 0 0 0 0 0 0 0 0 0 0 0 0 0 0 0 0 0 0 0 0 0 0 0 0 0 0 0 0 0 0 0 0 0 0 0 0 0 0 0 0 0 0 0 0 0 0 0 0 0 0 0 0 0 0 0 0 0 0 0 0 0 0 0 0 0 0 0 0 0 0 0 0 0 0 0 0 0 0 0 0 0 0 0 0 0 0 0 0 0 0 0 0 0 0 0 0 0 0 0 0 0 0 0 0 0 0 0 0 0 0 0 0 0 0 0 0 0 0 0 0 0 0 0 0 0 0 0 0 0 0 0 0 0 0 0 0 0 0 0 0 0 0 0 0 0 0 0 0 0 0 0 0 0 0 0 0 0 0 0 0 0 0 0 0 0 0 0 0 0 0 0 0 0 0 0 0 0 0 0 0 0 0 0 0 0 0 0 0 0 0 0 0 0 0 0 0 0 0 0 0 0 0 0 0 0 0 0 0 0 0 0 0 0 0 0 0 0 0 0 0 0 0 0 0 0 0 0 0 0 0 0 0 0 0 0 0 0 0 0 0 0 0 0 0 0 0 0 0 0 0 0 0 0 0 0 0 0 0 0 0 0 0 0 0 0 0 0 0 0 0 0 0 0 0 0 0 0 0 0 0 0 0 0 0 0 0 0 0 0 0 0 0 0 0 0 0 0 0 0 0 0 0 0 0 0 0 0 0 0 0 0 0 0 0 0 0 0 0 0 0 0 0 0 0 0 0 0 0 0 0 0 0 0 0 0 0 0 0 0 0 0 0 0 0 0 0 0 0 0 0 0 0 0 0 0 0 0 0 0 0 0 0 0 0 0 0 0 0 0 0 0 0 0 0 0 0 0 0 0 0 0 0 0 0 0 0 0 0 0 0 0 0 0 0 0 0 0 0 0 0 0 0 0 0 0 0 0 0 0 0 0 0 0 0 0 0 0 1 2 0 0 0 0 0 0 0 0 0 0 0 0 0 0 0 0 0 0 0 0 0 0 1 2 7 21 0 0 0 0 0 0 0 0 0 0 0 0 0 0 0 0 0 0 0 0 0 1 2 6 26 91 0 0 0 0 0 0 0 0 0 0 0 0 0 0 0 0 0 0 0 0 0 0 2 32 87 166 0 0 0 0 0 0 0 0 0 0 0 0 0 0 0 0 0 0 0 0 0 0 2 47 111 186 0 0 0 0 0 0 0 0 0 0 0 0 0 0 0 0 0 0 0 0 0 0 2 28 81 167 0 0 0 0 0 0 0 0 0 0 0 0 0 0 0 0 0 0 0 0 0 0 1 10 68 162 0 0 0 0 0 0 0 0 0 0 0 0 0 0 0 0 0 0 0 0 0 0 0 3 45 123 0 0 0 0 0 0 0 0 0 0 0 0 0 0 0 0 0 0 0 0 0 0 0 1 8 32 0 0 0 0 0 0 0 0 0 0 0 0 0 0 0 0 0 0 0 0 0 0 0 0 1 8 0 0 0 0 0 0 0 0 0 0 0 0 0 0 0 0 0 0 0 0 0 0 0 0 0 0 0 0 0 0 0 0 0 0 0 0 0 0 0 0 0 0 0 0 0 0 0 0 0 0 0 0 0 0 0 0 0 0 0 0 0 0 0 0 0 0 0 0 0 0 0 0 0 0 0 0 0 0 0 0 0 0 0 0 0 0 0 0 0 0 0 0 0 0 0 0 0 0 0 0 0 0 0 0 0 0 0 0 0 0 0 0 0 0 0 0 0 0 0 0 0 0 0 0 0 0 0 0 0 0 0 0 0 0 0 0 0 0 0 0 0 0 0 0 0 0 0 0 0 0 0 0 0 0 0 0 0 0 0 0 0 0 0 0 0 0 0 0 0 0 0 0 0 0 0 0 0 0 0 0 0 0 0 0 0 0 0 0 0 0 0 0 0 0 0 0 0 0 0 0 0 0 0 0 0 0 0 0 0 0 0 0 0 0 0 0 0 0 0 0 0 0 0 0 0 0 0 0 0 0 0 0 0 0 0 0 0 0 0 0 0 0 0 0 0 0 0 0 0 0 0 0 0 0 0 0 0 0 0 0 0 0 0 0 0 0 0 0 0 0 0 0 0 0 0 0 0 0 0 0 0 0 0 0 0 0 0 0 0 0 0 0 0 0 0 0 0 0 0 0 0 0 0 0 0 0 0 0 0 0 0 0 0 0 0 0 0 0 0 0 0 0 0 0 0 0 0 0 0 0 0 0 0 0 0 0 0 0 0 0 0 0 0 0 0 0 0 0 0 0 0 0 0 0 0 0 0 0 0 0 0 0 0 0 0 0 0 0 0 0 0 0 0 0 0 0 0 0 0 0 0 0 0 0 0 0 0 0 0 0 0 0 0 0 0 0 0 0 0 0 0 0 0 0 0 0 0 0 0 0 0 0 0 0 0 0 0 0 0 0 0 0 0 0 0 0 0 0 0 0 0 0 0 0 0 0 0 0 0 1 2 5 0 0 0 0 0 0 0 0 0 0 0 0 0 0 0 0 0 0 0 0 0 0 4 11 20 34 0 0 0 0 0 0 0 0 0 0 0 0 0 0 0 0 0 0 0 0 0 1 6 27 62 115 0 0 0 0 0 0 0 0 0 0 0 0 0 0 0 0 0 0 0 0 0 1 6 95 178 214 0 0 0 0 0 0 0 0 0 0 0 0 0 0 0 0 0 0 0 0 0 0 12 138 215 238 0 0 0 0 0 0 0 0 0 0 0 0 0 0 0 0 0 0 0 0 0 0 10 109 197 234 0 0 0 0 0 0 0 0 0 0 0 0 0 0 0 0 0 0 0 0 0 0 3 53 175 235 0 0 0 0 0 0 0 0 0 0 0 0 0 0 0 0 0 0 0 0 0 0 3 28 146 221 0 0 0 0 0 0 0 0 0 0 0 0 0 0 0 0 0 0 0 0 0 0 3 21 73 144 0 0 0 0 0 0 0 0 0 0 0 0 0 0 0 0 0 0 0 0 0 0 0 4 12 43 0 0 0 0 0 0 0 0 0 0 0 0 0 0 0 0 0 0 0 0 0 0 0 0 0 0 0 0 0 0 0 0 0 0 0 0 0 0 0 0 0 0 0 0 0 0 0 0 0 0 0 0 0 0 0 0 0 0 0 0 0 0 0 0 0 0 0 0 0 0 0 0 0 0 0 0 0 0 0 0 0 0 0 0 0 0 0 0 0 0 0 0 0 0 0 0 0 0 0 0 0 0 0 0 0 0 0 0 0 0 0 0 0 0 0 0 0 0 0 0 0 0 0 0 0 0 0 0 0 0 0 0 0 0 0 0 0 0 0 0 0 0 0 0 0 0 0 0 0 0 0 0 0 0 0 0 0 0 0 0 0 0 0 0 0 0 0 0 0 0 0 0 0 0 0 0 0 0 0 0 0 0 0 0 0 0 0 0 0 0 0 0 0 0 0 0 0 0 0 0 0 0 0 0 0 0 0 0 0 0 0 0 0 0 0 0 0 0 0 0 0 0 0 0 0 0 0 0 0 0 0 0 0 0 0 0 0 0 0 0 0 0 0 0 0 0 0 0 0 0 0 0 0 0 0 0 0 0 0 0 0 0 0 0 0 0 0 0 0 0 0 0 0 0 0 0 0 0 0 0 0 0 0 0 0 0 0 0 0 0 0 0 0 0 0 0 0 0 0 0 0 0 0 0 0 0 0 0 0 0 0 0 0 0 0 0 0 0 0 0 0 0 0 0 0 0 0 0 0 0 0 0 0 0 0 0 0 0 0 0 0 0 0 0 0 0 0 0 0 0 0 0 0 0 0 0 0 0 0 0 0 0 0 0 0 0 0 0 0 0 0 0 0 0 0 0 0 0 0 0 0 0 0 0 0 0 0 0 0 0 0 0 0 0 0 0 0 0 0 0 0 0 0 0 0 0 0 0 0 0 0 0 0 0 0 1 0 0 0 0 0 0 0 0 0 0 0 0 0 0 0 0 0 0 0 0 0 0 0 1 3 5 0 0 0 0 0 0 0 0 0 0 0 0 0 0 0 0 0 0 0 0 0 0 3 13 30 36 0 0 0 0 0 0 0 0 0 0 0 0 0 0 0 0 0 0 0 0 0 2 8 40 84 102 0 0 0 0 0 0 0 0 0 0 0 0 0 0 0 0 0 0 0 0 1 4 16 125 203 218 0 0 0 0 0 0 0 0 0 0 0 0 0 0 0 0 0 0 0 0 1 4 56 196 242 247 0 0 0 0 0 0 0 0 0 0 0 0 0 0 0 0 0 0 0 0 0 2 52 188 240 249 0 0 0 0 0 0 0 0 0 0 0 0 0 0 0 0 0 0 0 0 0 1 12 108 220 248 0 0 0 0 0 0 0 0 0 0 0 0 0 0 0 0 0 0 0 0 0 1 11 72 195 242 0 0 0 0 0 0 0 0 0 0 0 0 0 0 0 0 0 0 0 0 0 0 7 54 134 198 0 0 0 0 0 0 0 0 0 0 0 0 0 0 0 0 0 0 0 0 0 0 1 12 24 59 0 0 0 0 0 0 0 0 0 0 0 0 0 0 0 0 0 0 0 0 0 0 0 0 0 0 0 0 0 0 0 0 0 0 0 0 0 0 0 0 0 0 0 0 0 0 0 0 0 0 0 0 0 0 0 0 0 0 0 0 0 0 0 0 0 0 0 0 0 0 0 0 0 0 0 0 0 0 0 0 0 0 0 0 0 0 0 0 0 0 0 0 0 0 0 0 0 0 0 0 0 0 0 0 0 0 0 0 0 0 0 0 0 0 0 0 0 0 0 0 0 0 0 0 0 0 0 0 0 0 0 0 0 0 0 0 0 0 0 0 0 0 0 0 0 0 0 0 0 0 0 0 0 0 0 0 0 0 0 0 0 0 0 0 0 0 0 0 0 0 0 0 0 0 0 0 0 0 0 0 0 0 0 0 0 0 0 0 0 0 0 0 0 0 0 0 0 0 0 0 0 0 0 0 0 0 0 0 0 0 0 0 0 0 0 0 0 0 0 0 0 0 0 0 0 0 0 0 0 0 0 0 0 0 0 0 0 0 0 0 0 0 0 0 0 0 0 0 0 0 0 0 0 0 0 0 0 0 0 0 0 0 0 0 0 0 0 0 0 0 0 0 0 0 0 0 0 0 0 0 0 0 0 0 0 0 0 0 0 0 0 0 0 0 0 0 0 0 0 0 0 0 0 0 0 0 0 0 0 0 0 0 0 0 0 0 0 0 0 0 0 0 0 0 0 0 0 0 0 0 0 0 0 0 0 0 0 0 0 0 0 0 0 0 0 0 0 0 0 0 0 0 0 0 0 0 0 0 0 0 0 0 0 0 0 0 0 0 0 0 0 0 0 0 0 0 0 0 0 0 0 0 0 0 0 0 0 0 0 0 0 0 0 0 0 0 0 0 0 0 0 0 0 0 0 0 0 0 0 0 0 0 0 0 0 1 0 0 0 0 0 0 0 0 0 0 0 0 0 0 0 0 0 0 0 0 0 0 0 1 3 4 0 0 0 0 0 0 0 0 0 0 0 0 0 0 0 0 0 0 0 0 0 0 2 6 25 34 0 0 0 0 0 0 0 0 0 0 0 0 0 0 0 0 0 0 0 0 0 3 9 37 83 95 0 0 0 0 0 0 0 0 0 0 0 0 0 0 0 0 0 0 0 0 2 7 27 126 197 202 0 0 0 0 0 0 0 0 0 0 0 0 0 0 0 0 0 0 0 1 2 8 87 213 244 246 0 0 0 0 0 0 0 0 0 0 0 0 0 0 0 0 0 0 0 1 1 5 83 212 246 251 0 0 0 0 0 0 0 0 0 0 0 0 0 0 0 0 0 0 0 0 0 3 30 140 226 249 0 0 0 0 0 0 0 0 0 0 0 0 0 0 0 0 0 0 0 0 0 2 25 105 197 242 0 0 0 0 0 0 0 0 0 0 0 0 0 0 0 0 0 0 0 0 0 1 11 71 139 194 0 0 0 0 0 0 0 0 0 0 0 0 0 0 0 0 0 0 0 0 0 0 2 18 30 47 0 0 0 0 0 0 0 0 0 0 0 0 0 0 0 0 0 0 0 0 0 0 0 0 0 0 0 0 0 0 0 0 0 0 0 0 0 0 0 0 0 0 0 0 0 0 0 0 0 0 0 0 0 0 0 0 0 0 0 0 0 0 0 0 0 0 0 0 0 0 0 0 0 0 0 0 0 0 0 0 0 0 0 0 0 0 0 0 0 0 0 0 0 0 0 0 0 0 0 0 0 0 0 0 0 0 0 0 0 0 0 0 0 0 0 0 0 0 0 0 0 0 0 0 0 0 0 0 0 0 0 0 0 0 0 0 0 0 0 0 0 0 0 0 0 0 0 0 0 0 0 0 0 0 0 0 0 0 0 0 0 0 0 0 0 0 0 0 0 0 0 0 0 0 0 0 0 0 0 1 1 1 0 0 0 0 0 0 0 0 0 0 0 0 0 0 0 0 0 0 0 0 0 0 0 1 3 3 0 0 0 0 0 0 0 0 0 0 0 0 0 0 0 0 0 0 0 0 0 0 1 2 5 4 0 0 0 0 0 0 0 0 0 0 0 0 0 0 0 0 0 0 0 0 0 0 1 1 3 3 0 0 0 0 0 0 0 0 0 0 0 0 0 0 0 0 0 0 0 0 0 0 1 2 3 2 0 0 0 0 0 0 0 0 0 0 0 0 0 0 0 0 0 0 0 0 0 0 1 2 3 3 0 0 0 0 0 0 0 0 0 0 0 0 0 0 0 0 0 0 0 0 0 1 1 2 2 2 0 0 0 0 0 0 0 0 0 0 0 0 0 0 0 0 0 0 0 0 0 1 1 1 2 2 0 0 0 0 0 0 0 0 0 0 0 0 0 0 0 0 0 0 0 0 1 1 1 1 1 2 0 0 0 0 0 0 0 0 0 0 0 0 0 0 0 0 0 0 0 1 1 1 1 2 2 2 0 0 0 0 0 0 0 0 0 0 0 0 0 0 0 0 0 0 1 1 1 1 3 5 5 5 0 0 0 0 0 0 0 0 0 0 0 0 0 0 0 0 0 0 1 1 1 3 10 18 30 33 0 0 0 0 0 0 0 0 0 0 0 0 0 0 0 0 0 0 1 1 2 9 24 60 105 121 0 0 0 0 0 0 0 0 0 0 0 0 0 0 0 0 0 0 1 3 7 15 40 141 201 210 0 0 0 0 0 0 0 0 0 0 0 0 0 0 0 0 0 0 1 7 14 15 73 210 243 245 0 0 0 0 0 0 0 0 0 0 0 0 0 0 0 1 1 1 1 6 11 14 70 202 244 250 0 0 0 0 0 0 0 0 0 0 0 0 0 0 0 1 1 1 1 1 3 10 46 144 220 246 0 0 0 0 0 0 0 0 0 0 0 0 0 0 0 0 0 1 1 1 1 5 43 127 185 227 0 0 0 0 0 0 0 0 0 0 0 0 0 0 0 0 0 1 1 1 1 2 21 82 118 158 0 0 0 0 0 0 0 0 0 0 0 0 0 0 0 0 0 1 1 1 1 1 6 26 33 37 0 0 0 0 0 0 0 0 0 0 0 0 0 0 0 0 0 0 0 0 0 0 0 0 1 1 0 0 0 1 1 0 1 1 1 0 0 0 0 0 0 0 0 0 1 1 1 1 1 1 2 2 0 1 1 1 1 1 1 2 1 1 1 1 1 1 1 0 0 1 1 1 2 2 2 2 2 2 0 1 1 2 2 2 2 2 2 1 1 1 1 1 1 1 1 1 1 2 2 2 2 2 2 2 0 1 2 2 2 2 2 2 2 2 1 2 2 2 1 1 1 1 1 2 2 2 3 3 3 2 0 2 2 2 2 2 2 2 2 2 2 2 2 2 2 1 1 1 2 3 3 3 3 7 8 5 1 3 4 3 2 1 1 1 1 1 1 1 1 2 2 1 1 1 2 3 3 3 9 20 21 13 1 4 7 6 3 1 1 1 1 1 1 1 1 1 2 1 1 1 3 5 4 5 15 31 36 28 1 3 7 8 4 1 1 1 1 1 1 1 1 1 1 1 1 2 4 6 5 6 15 27 34 29 0 1 4 6 4 2 1 1 1 1 1 1 1 1 1 1 1 2 4 7 6 7 13 19 22 19 0 1 2 3 2 1 1 0 0 1 1 1 1 1 1 1 2 2 5 7 6 8 13 17 20 21 0 1 2 2 2 1 1 1 0 0 0 1 1 1 1 1 2 2 4 7 8 7 12 17 22 29 0 1 2 2 2 1 1 1 0 0 1 1 1 1 1 1 1 3 5 8 9 7 10 16 20 27 0 1 1 1 1 1 1 1 1 1 1 1 1 1 1 1 2 4 7 9 9 8 9 14 17 19 0 0 1 1 1 1 1 1 1 1 1 1 1 1 1 2 3 6 9 9 9 8 10 14 14 16 0 0 0 1 1 1 1 1 1 1 1 1 1 2 2 2 4 7 9 9 8 7 11 14 13 18 0 0 0 1 1 1 1 1 1 1 1 1 1 2 3 5 6 8 8 8 7 8 13 18 23 26 0 0 0 1 1 2 1 1 1 1 1 1 1 2 4 7 9 8 7 7 8 10 22 37 56 55 0 0 1 1 1 2 1 1 1 0 1 1 1 2 4 8 9 7 6 6 10 18 40 91 147 153 0 0 1 1 1 1 1 1 1 1 1 1 2 2 4 7 7 6 5 8 15 25 50 150 216 229 0 0 1 1 1 1 1 1 1 1 1 2 3 4 5 7 8 7 5 16 30 31 53 183 240 248 0 0 1 1 1 1 1 1 1 1 2 4 5 5 8 13 15 11 6 14 28 34 55 161 236 249 0 0 1 1 1 1 0 0 0 1 3 5 7 7 10 14 15 13 8 6 11 24 58 134 212 239 0 0 0 1 1 1 0 0 0 1 2 5 9 9 8 8 9 11 10 9 8 13 53 135 180 200 0 0 0 0 0 0 0 0 0 1 1 5 11 11 7 6 6 8 10 13 12 11 32 87 104 111 0 0 0 0 0 0 0 0 0 1 1 4 11 11 8 7 6 7 10 15 18 12 14 32 42 37 1 1 1 2 3 5 10 9 6 5 3 3 3 2 1 1 1 2 4 7 7 7 9 14 20 18 1 3 4 5 7 10 18 23 20 14 8 6 6 6 6 6 8 12 17 17 14 11 12 16 19 20 1 5 8 10 11 14 21 27 25 18 12 10 10 10 10 10 13 19 25 23 17 13 13 16 16 14 2 6 10 12 13 16 18 22 24 20 16 14 13 13 11 10 12 17 24 26 22 15 13 17 20 15 3 9 12 13 14 18 22 25 28 27 22 18 16 14 13 13 13 16 23 25 20 15 16 23 29 24 15 20 19 16 14 17 21 24 26 26 22 18 16 15 15 14 13 16 22 23 20 17 27 46 53 44 32 36 35 27 19 15 16 18 20 20 17 15 14 15 15 13 12 17 27 31 29 32 56 83 85 73 39 46 52 42 23 12 10 12 15 15 13 11 11 13 14 13 14 24 39 42 38 49 79 100 98 89 24 35 48 45 26 12 9 9 11 12 11 9 8 11 13 13 15 26 40 44 43 57 80 91 84 78 9 20 33 37 27 15 10 9 10 11 11 10 9 10 12 14 17 25 39 48 52 63 75 75 71 71 7 16 24 25 21 15 11 9 9 10 10 10 10 10 12 15 18 26 39 49 56 68 75 73 84 99 4 12 17 17 14 12 10 8 8 9 10 11 12 12 13 15 18 23 31 42 52 63 70 75 96 118 3 12 17 15 14 12 10 9 8 9 11 13 15 15 15 17 18 22 29 40 49 56 65 76 90 104 3 13 17 14 13 12 11 11 10 9 11 15 18 18 18 18 20 27 37 45 51 58 68 78 79 81 3 11 14 13 13 13 12 11 11 11 11 14 18 20 20 21 27 36 43 46 50 58 70 75 69 79 2 9 13 13 14 14 13 11 10 11 11 12 16 21 23 27 36 42 41 39 40 50 64 64 68 101 1 6 11 14 17 17 13 9 8 9 10 11 14 21 30 39 45 44 38 33 33 41 53 58 89 123 1 4 8 13 18 19 13 8 6 6 8 10 13 20 36 51 52 44 35 33 42 54 62 76 113 126 1 5 8 11 15 16 13 8 7 8 10 13 16 21 39 57 53 38 30 38 60 68 73 115 173 175 3 8 10 11 12 12 11 9 8 12 19 23 24 26 39 54 47 30 23 35 53 54 64 144 219 234 3 9 11 11 11 10 9 8 9 17 29 36 39 36 39 46 42 31 24 31 46 50 59 138 231 248 1 5 8 10 11 9 8 7 8 17 29 39 46 46 46 52 54 47 32 30 43 57 77 121 219 246 1 4 9 13 13 10 9 8 7 12 23 34 47 51 50 50 55 60 50 37 31 46 84 138 203 231 1 4 9 14 13 10 9 8 8 11 21 38 54 52 40 34 40 59 69 63 44 37 72 141 185 195 1 3 6 8 9 8 8 8 9 10 20 44 63 54 35 29 33 55 79 86 66 43 61 103 126 124 0 2 5 6 7 7 8 8 8 9 17 41 63 56 38 31 30 50 78 96 84 52 54 76 85 67 2 5 7 16 26 38 53 45 26 23 38 54 42 22 12 7 7 10 14 28 38 35 31 27 29 33 5 12 19 32 45 59 76 81 73 63 60 62 59 50 38 35 42 51 55 55 51 45 41 39 44 53 10 17 27 41 55 71 85 93 90 80 72 69 67 61 54 54 62 74 84 83 69 55 49 49 55 53 16 23 31 47 66 78 85 92 92 85 79 74 69 62 56 54 59 76 96 101 86 66 57 60 72 71 20 27 36 55 74 88 96 97 98 93 85 76 67 60 59 59 61 76 93 96 83 69 67 77 93 95 42 47 49 62 77 89 95 93 95 89 80 70 61 58 60 61 61 73 88 90 80 71 85 107 117 113 79 84 86 90 89 86 85 82 84 79 70 61 55 54 58 57 57 73 97 107 99 96 117 134 135 130 98 106 112 103 84 72 67 65 70 69 61 50 46 50 56 56 59 82 110 117 111 119 135 140 137 137 80 94 106 97 75 63 60 58 62 62 55 47 42 46 53 56 62 83 106 113 115 127 136 137 139 141 67 83 95 92 77 64 60 57 60 59 55 50 47 49 54 57 64 79 98 112 124 135 137 141 155 157 69 82 90 83 73 66 58 54 57 55 53 54 55 57 58 61 68 80 95 108 125 140 144 155 174 178 50 64 73 73 69 62 54 49 49 50 53 58 61 63 63 65 69 73 81 95 118 139 153 167 181 185 40 54 63 69 70 61 53 48 47 49 56 63 66 67 67 67 67 68 77 96 121 143 161 171 174 172 43 55 62 67 68 60 54 51 49 50 58 65 69 70 69 67 66 73 92 113 135 155 169 172 161 152 43 53 59 65 69 62 54 50 50 50 54 59 65 69 70 69 73 89 108 122 136 153 166 163 147 156 37 49 57 61 68 65 54 47 47 47 49 52 58 67 72 75 85 100 108 110 116 136 153 144 151 186 22 43 53 59 67 65 53 42 39 38 41 45 52 64 75 84 95 104 103 95 97 121 141 137 170 199 17 34 44 55 65 63 51 38 33 33 37 45 55 65 80 95 105 109 100 91 108 139 147 145 173 187 26 32 40 52 59 58 52 39 36 43 57 69 76 78 90 108 116 109 91 100 136 149 137 144 184 193 38 44 51 62 62 56 51 41 45 68 92 102 101 92 96 109 111 94 76 94 120 110 102 146 209 229 41 49 56 62 62 55 47 39 55 90 112 119 117 104 95 98 101 92 74 74 83 92 116 156 218 243 20 33 45 50 51 47 42 38 50 78 99 110 117 113 100 96 107 111 86 66 77 108 142 161 206 238 10 24 40 48 46 41 40 38 37 48 69 91 111 114 101 92 107 124 111 81 71 93 130 164 199 222 10 23 36 42 41 38 38 37 36 46 69 97 115 108 91 84 99 129 136 113 83 81 115 163 197 206 4 17 27 30 32 33 36 37 37 49 77 108 119 103 86 85 95 125 146 135 105 90 115 147 169 173 2 13 22 26 32 35 38 38 37 47 74 106 118 102 88 86 85 110 142 146 123 98 111 134 142 120 24 36 52 81 111 133 143 133 114 109 117 125 113 94 81 74 74 81 95 114 123 115 101 86 81 71 36 47 67 98 127 146 154 150 140 133 131 129 123 113 101 96 102 114 127 135 134 125 111 100 100 105 48 59 81 113 140 155 159 155 149 143 137 131 126 119 113 112 119 136 153 159 150 133 119 112 113 114 62 73 96 127 151 158 157 152 147 142 136 130 124 118 114 112 121 144 164 168 155 135 124 121 127 131 71 79 100 135 157 163 160 152 147 142 135 127 119 115 116 118 127 148 162 163 150 135 130 133 141 147 89 94 111 141 159 162 157 149 145 137 129 121 114 113 120 126 133 146 157 158 148 136 139 146 149 151 121 129 145 160 164 161 154 146 141 133 124 115 111 115 125 131 133 143 157 164 157 150 152 153 151 152 142 152 162 164 160 155 149 141 138 131 122 114 114 123 131 132 131 140 157 165 162 159 156 150 153 157 143 153 162 159 153 150 148 142 140 135 129 123 123 127 130 126 124 135 149 157 159 161 157 157 172 173 148 156 162 159 153 149 147 144 143 139 136 132 129 126 121 116 117 127 140 151 160 165 167 182 197 190 153 160 163 157 151 147 143 141 142 140 139 135 130 123 116 114 117 125 134 145 159 174 189 206 212 202 142 149 154 151 146 142 138 137 138 139 139 133 125 120 116 115 117 121 130 143 168 193 209 217 217 211 133 141 147 147 144 138 134 133 136 138 138 131 124 120 117 115 118 125 141 164 191 210 219 220 216 212 133 139 144 145 142 135 130 130 131 133 133 128 123 121 119 120 126 140 163 188 207 218 221 219 212 208 125 132 139 143 143 135 127 124 124 124 125 123 121 121 124 130 140 157 178 197 210 217 219 215 209 212 114 123 131 137 143 137 125 117 116 116 117 117 119 123 131 140 151 168 183 194 202 209 213 208 211 222 93 110 123 132 140 136 122 110 106 105 109 113 118 124 133 145 160 174 183 186 190 199 205 204 213 220 77 96 116 130 137 132 118 105 100 101 108 115 121 126 134 150 168 180 181 179 185 196 198 196 204 208 82 93 113 130 135 130 120 110 108 115 125 132 135 135 142 160 176 181 175 176 187 190 183 182 197 204 94 104 123 137 137 129 123 118 122 136 148 151 148 143 148 164 175 172 163 169 175 168 169 182 204 218 97 109 125 133 130 122 116 116 132 151 159 159 156 148 148 158 167 164 154 156 163 170 187 200 215 230 72 88 106 112 110 104 99 103 123 141 150 155 158 155 152 155 165 168 156 151 165 182 195 202 212 228 61 75 90 95 93 89 86 87 98 112 130 152 166 167 161 159 168 177 170 155 154 164 177 194 209 222 65 75 84 85 84 82 81 84 95 111 134 162 178 178 171 170 177 187 183 164 150 154 172 195 213 221 60 72 80 80 80 78 78 84 100 120 144 170 183 182 179 180 183 188 187 172 158 164 182 198 210 215 45 69 78 80 81 79 79 84 99 119 142 167 180 180 179 178 175 179 186 180 169 171 185 195 201 182 22 33 47 70 97 114 119 112 102 97 95 91 86 80 74 70 70 76 88 100 103 97 86 77 74 58 32 39 55 79 104 119 121 115 106 101 98 93 87 82 78 75 77 87 102 113 112 103 91 83 80 79 40 48 66 92 115 123 121 113 106 102 98 92 87 83 81 80 84 100 118 125 120 106 94 88 85 86 50 60 80 105 121 124 117 107 101 98 93 88 84 82 81 81 88 106 122 125 115 101 93 90 89 93 57 64 83 109 124 123 114 104 98 94 90 85 82 81 82 85 95 111 121 120 110 99 95 94 94 97 68 71 89 113 125 121 111 103 96 92 87 83 80 82 87 94 102 111 117 117 109 100 98 97 96 97 85 93 110 122 125 121 112 105 98 91 85 81 81 87 96 102 105 108 112 116 112 105 101 97 96 97 100 108 120 124 124 122 116 109 103 95 89 87 89 98 105 105 101 101 107 113 112 108 101 95 100 103 107 114 123 124 123 122 120 114 109 104 100 99 101 105 104 98 92 93 101 106 107 106 102 104 116 114 114 120 125 125 123 122 119 116 113 111 109 108 106 101 93 86 83 87 94 100 103 106 115 132 140 126 120 123 126 123 120 118 116 115 115 114 113 109 101 92 83 79 79 83 90 96 104 120 143 159 158 140 116 120 122 118 114 112 112 113 115 116 114 104 92 84 79 77 78 83 92 102 122 149 168 172 167 158 112 117 120 114 109 107 108 110 113 115 111 98 88 82 79 77 81 92 108 128 153 172 179 176 170 168 110 115 118 114 107 104 103 105 107 108 105 94 87 82 80 84 94 109 128 152 171 180 180 175 170 170 101 107 112 111 109 104 100 98 98 99 96 91 87 85 87 97 110 123 141 161 175 180 178 173 171 174 92 97 103 107 109 105 97 92 91 91 91 90 89 90 96 108 120 132 147 162 171 174 173 170 173 176 78 85 95 104 109 105 94 86 84 84 87 90 91 93 101 114 127 139 150 157 162 164 164 165 167 165 65 75 92 103 108 103 92 83 81 83 88 92 93 94 103 118 133 143 148 151 152 150 148 150 152 151 63 73 91 104 108 103 94 89 88 91 94 95 94 95 105 123 137 142 143 143 141 136 134 136 142 146 68 79 96 106 106 101 97 97 99 101 100 96 94 95 108 127 136 136 134 135 131 127 134 141 147 153 69 80 96 100 96 91 90 96 104 105 102 99 98 98 108 123 130 127 124 127 134 140 148 154 158 166 58 67 80 83 81 76 74 82 96 102 102 104 106 106 112 120 126 125 121 126 139 146 148 151 157 168 54 60 67 67 67 65 61 64 76 87 98 113 123 125 126 127 130 133 131 127 129 130 132 143 156 168 58 61 62 62 61 59 57 61 74 87 102 125 141 144 142 142 144 145 139 129 123 124 133 148 163 172 57 61 63 63 62 57 55 62 79 94 108 130 148 154 153 153 153 149 141 132 127 133 146 157 167 173 44 61 64 64 62 56 54 61 78 93 106 127 146 154 154 151 147 146 143 138 135 142 153 159 165 144 0 0 0 0 0 0 0 0 0 0 0 0 0 0 0 0 0 0 0 0 0 0 0 0 0 0 0 0 0 0 0 0 0 0 0 0 0 0 0 0 0 0 0 0 0 0 0 0 0 0 0 0 0 0 0 0 0 0 0 0 0 0 0 0 0 0 0 0 0 0 0 0 0 0 0 0 0 0 0 0 0 0 0 0 0 0 0 0 0 0 0 0 0 0 0 0 0 0 0 0 0 0 0 0 0 0 0 0 0 0 0 0 0 0 0 0 0 0 0 0 0 0 0 0 0 0 0 0 0 0 0 0 0 0 0 0 0 0 0 0 0 0 0 0 0 0 0 0 0 0 0 0 0 0 0 0 0 0 0 0 0 0 0 0 0 0 0 0 0 0 0 0 0 0 0 0 0 0 0 0 0 0 0 0 0 0 0 0 0 0 0 0 0 0 0 0 0 0 0 0 0 0 0 0 0 0 0 0 0 0 0 0 0 0 0 0 0 0 0 0 0 0 0 0 0 0 0 0 0 0 0 0 0 0 0 0 0 0 0 0 0 0 0 0 0 0 0 0 0 0 0 0 0 0 0 0 0 0 0 0 0 0 0 0 0 0 0 0 0 0 0 0 0 0 0 0 0 0 0 0 0 0 0 0 0 0 0 0 0 0 0 0 0 0 0 0 0 0 0 0 0 0 0 0 0 0 0 0 0 0 0 0 0 0 0 0 0 0 0 0 0 0 0 0 0 0 0 0 0 0 0 0 0 0 0 0 0 0 0 0 0 0 0 0 0 0 0 0 0 0 0 0 0 0 0 0 0 0 0 0 0 0 0 0 0 0 0 0 0 0 0 0 0 0 0 0 0 0 0 0 0 0 0 0 0 0 0 0 0 0 0 0 0 0 0 0 0 0 0 0 0 0 0 0 0 0 0 0 0 0 0 0 0 0 0 0 0 0 0 0 0 0 0 0 0 0 0 0 0 0 0 0 0 0 0 0 0 0 0 0 0 0 0 0 0 0 0 0 0 0 0 0 0 0 0 0 0 0 0 0 0 0 0 0 0 0 0 0 0 0 0 0 0 0 0 0 0 0 0 0 0 0 0 0 0 0 0 0 0 0 0 0 0 0 0 0 0 0 0 0 0 0 0 0 0 0 0 0 0 0 0 0 0 0 0 0 0 0 0 0 0 0 0 0 0 0 0 0 0 0 0 0 0 0 0 0 0 0 0 0 0 0 0 0 0 0 0 0 0 0 0 0 0 0 0 0 0 0 0 0 0 0 0 0 0 0 0 0 0 0 0 0 0 0 0 0 0 0 0 0 0 0 0 0 0 0 0 0 0 0 0 0 0 0 0 0 0 0 0 0 0 0 0 0 0 0 0 0 0 0 0 0 0 0 0 0 0 0 0 0 0 0 0 0 0 0 0 0 0 0 0 0 0 0 0 0 0 0 0 0 0 0 0 0 0 0 0 0 0 0 0 0 0 0 0 0 0 0 0 0 0 0 0 0 0 0 0 0 0 0 0 0 0 0 0 0 
</DataArray>
<DataArray Name="HRRPUV" NumberOfComponents="1" type="UInt8" format="ascii">