<?xml version="1.0"?>
<VTKFile type="PolyData" version="1.0" byte_order="LittleEndian" header_type="UInt64">
<PolyData>
<Piece NumberOfPoints="17" NumberOfVerts="0" NumberOfLines="0" NumberOfPolys="0">
    <Points>
        <DataArray type="Float32" NumberOfComponents="3" format="ascii">
        12.1087 15.3241 5.8811 11.6570 16.3448 7.1138 14.0566 18.8115 6.9674 12.8763 16.8307 7.3794 11.6534 17.8676 7.3585 12.8913 16.6923 7.0619 13.8698 18.9493 7.0294 11.0747 19.2584 7.8438 14.0183 20.2087 7.4735 13.1287 16.1227 5.6625 12.2926 16.7935 7.9066 13.4702 16.7623 6.2471 12.8223 15.9702 5.8731 12.9581 16.6753 7.0292 13.8182 16.6776 6.1014 13.9901 16.6368 6.7052 13.7222 17.4444 7.8668 
        </DataArray>
    </Points>
    <PointData>
        <DataArray type="Float32" Name="tag" format="ascii">
            204659.0000 206479.0000 208347.0000 214583.0000 214695.0000 216263.0000 216527.0000 219843.0000 221755.0000 230999.0000 234459.0000 234511.0000 235695.0000 240371.0000 240651.0000 252171.0000 255683.0000 
         </DataArray>
    </PointData>
</Piece>
</PolyData>
</VTKFile>