<?xml version="1.0"?>
<VTKFile type="ImageData" version="1.0" byte_order="LittleEndian" header_type="UInt64">
<ImageData WholeExtent="25 50 0 25 1 1"
 Origin="15.0000 0.0000 0.0000" Spacing="0.6000 0.6000 0.6000">
<Piece Extent="25 50 0 25 1 1">
<PointData>
<DataArray Name="TEMPERATURE" NumberOfComponents="1" type="Float32" format="ascii">
30.3 31.5 32.0 33.8 32.6 33.6 33.4 29.9 28.2 27.5 26.3 25.1 24.8 25.9 27.0 28.0 28.1 27.1 25.6 24.2 23.6 23.5 23.9 24.0 23.5 23.4 35.4 37.6 35.3 34.2 33.0 35.4 36.9 33.9 31.1 29.4 27.6 26.2 25.8 26.4 27.4 28.5 29.2 28.8 27.2 25.6 24.7 24.1 24.1 24.0 23.7 23.5 42.0 46.0 41.0 35.1 32.7 35.4 38.0 36.1 32.9 30.3 28.3 27.2 27.0 27.2 27.9 28.9 29.8 29.9 28.4 27.0 25.9 24.8 24.2 23.9 23.4 22.8 46.2 48.6 44.1 36.4 31.8 32.0 34.0 33.8 32.3 30.3 28.2 27.6 27.8 28.1 28.6 29.6 30.2 30.4 29.5 28.6 27.5 25.9 25.0 24.3 23.6 22.8 48.2 45.3 41.0 35.4 31.2 30.9 33.0 33.1 31.8 30.8 29.8 30.0 30.7 30.9 30.9 31.0 30.9 30.8 30.1 29.7 28.4 26.5 25.5 24.6 24.0 23.2 44.4 39.3 36.8 38.4 36.3 34.1 36.9 36.2 34.4 35.1 35.3 35.1 35.6 35.7 35.3 34.0 32.3 31.0 30.2 30.5 29.8 28.0 26.7 25.2 24.0 23.1 39.6 36.3 39.4 49.1 46.2 38.2 40.1 41.1 41.6 42.1 40.4 38.8 39.0 39.1 38.3 36.3 33.5 31.3 30.5 31.0 30.8 29.3 27.6 25.8 24.4 23.4 39.0 37.7 44.2 56.7 52.1 40.4 42.5 46.4 45.5 41.8 37.2 35.8 37.6 38.7 38.3 36.5 33.6 31.2 29.9 30.2 30.5 29.8 28.4 27.0 25.4 23.9 44.2 44.2 48.0 59.4 56.9 47.1 50.5 53.1 45.3 37.1 32.1 31.0 33.3 35.2 35.4 34.4 32.2 30.0 28.9 29.2 29.9 30.0 29.0 28.2 26.5 24.5 48.7 50.7 51.5 58.9 60.7 57.7 59.4 55.3 42.9 33.9 30.1 29.5 30.1 30.8 31.1 30.9 29.8 28.4 27.5 27.6 28.1 28.8 28.6 28.5 27.4 25.6 48.1 51.0 51.3 55.2 59.7 62.3 62.0 52.1 39.9 33.1 30.8 30.9 30.1 29.0 28.9 29.0 28.5 27.6 26.7 26.5 27.0 28.0 28.6 29.0 28.1 26.6 47.7 47.9 47.9 50.6 54.4 56.7 56.5 47.9 37.6 33.3 32.5 33.1 31.9 29.7 28.5 28.3 28.2 28.1 27.2 26.3 26.2 27.2 28.3 29.1 28.5 27.5 50.3 47.2 47.9 49.1 48.4 46.9 48.3 44.9 36.5 32.0 31.5 32.3 32.1 30.2 28.8 28.6 28.9 29.4 29.0 27.9 26.9 26.8 28.0 28.7 28.3 27.8 55.4 49.6 50.9 51.0 46.5 42.3 43.5 42.9 35.8 30.2 29.2 30.5 31.2 30.4 29.6 29.4 29.7 30.9 31.9 31.8 30.1 28.1 27.9 28.0 27.4 27.1 59.3 53.0 51.4 51.2 48.2 42.5 40.8 40.8 35.2 29.5 27.9 29.1 30.1 30.2 30.1 30.4 30.7 32.1 34.0 34.8 33.5 30.7 29.0 27.9 26.9 26.3 59.0 55.8 49.8 48.6 49.7 45.3 42.3 40.6 35.2 30.1 27.6 28.0 28.8 29.4 30.0 30.8 31.2 31.8 33.3 34.6 34.3 32.7 30.6 28.3 26.3 25.3 54.5 56.9 49.0 44.3 47.7 48.2 47.8 43.8 36.2 31.2 28.6 27.9 28.0 28.6 29.6 30.6 30.7 30.7 31.5 32.5 32.6 32.2 30.8 28.4 25.8 24.5 54.7 62.4 54.0 43.9 45.1 49.8 52.6 46.9 37.1 32.8 30.8 29.1 28.1 28.2 28.9 29.6 29.5 29.6 30.0 30.2 30.0 30.0 29.5 27.9 25.7 24.3 70.7 78.9 68.3 55.9 56.1 59.9 58.3 52.4 42.2 37.3 34.3 31.2 28.9 28.2 28.6 29.1 29.2 29.3 29.2 28.6 28.2 28.5 28.4 27.2 25.6 24.5 98.3 107.3 98.5 86.7 84.8 84.9 74.3 67.3 56.7 46.7 39.2 33.6 30.1 28.6 28.9 29.5 29.6 29.5 28.7 27.7 27.4 27.9 27.7 26.8 25.8 25.0 123.1 136.0 135.2 123.8 113.9 109.1 97.4 88.7 74.8 57.8 44.2 35.5 31.6 29.6 29.5 30.0 29.9 29.3 28.2 27.4 27.0 27.2 27.1 26.5 25.9 25.1 126.5 143.0 147.0 139.2 131.1 130.7 123.5 105.5 80.9 57.4 42.9 35.9 33.0 30.9 29.9 29.9 29.6 28.8 27.9 27.2 26.6 26.6 26.5 26.3 25.6 24.6 125.6 138.2 135.6 125.7 119.8 123.0 124.1 110.6 84.6 58.4 42.6 36.9 34.6 32.0 30.1 29.8 29.5 29.1 28.2 27.1 26.3 26.2 26.3 26.4 25.3 23.9 112.3 114.4 104.9 91.3 84.6 85.5 92.8 96.3 85.0 63.7 46.9 40.0 35.9 31.9 30.0 30.1 30.1 29.8 28.8 27.4 26.5 26.2 26.3 26.5 25.3 23.8 91.6 92.4 84.2 73.2 65.1 61.3 65.0 70.1 68.3 55.5 45.4 40.9 35.4 30.6 29.8 31.0 31.4 30.9 29.5 27.8 26.6 26.2 26.2 26.5 25.4 24.0 70.4 88.0 82.2 71.5 56.5 47.8 50.0 52.3 50.9 44.2 40.0 37.9 33.3 29.4 29.7 32.0 33.3 32.9 30.8 28.2 26.6 26.0 26.0 26.3 25.5 24.3 
</DataArray>
</PointData>
</Piece>
</ImageData>
</VTKFile>
