<?xml version="1.0"?>
<VTKFile type="ImageData" version="1.0" byte_order="LittleEndian" header_type="UInt64">
<ImageData WholeExtent="25 50 25 50 0 15"
 Origin="15.0000 15.0000 0.0000" Spacing="0.6000 0.6000 0.6000">
<Piece Extent="25 50 25 50 0 15">
<PointData>
<DataArray Name="TEMPERATURE" NumberOfComponents="1" type="Float32" format="ascii">
23.0 24.7 25.9 26.8 27.3 28.0 28.5 27.5 25.7 24.9 24.3 23.6 23.0 22.6 22.2 21.9 21.6 21.4 21.2 21.0 20.8 20.6 20.5 20.3 20.2 20.1 23.5 24.0 24.7 25.5 26.1 26.6 26.9 26.1 24.8 24.1 23.6 23.1 22.7 22.3 22.0 21.7 21.5 21.3 21.0 20.9 20.7 20.6 20.4 20.3 20.1 20.1 23.1 23.5 24.1 24.7 25.0 25.3 25.4 25.1 24.3 23.6 23.2 22.8 22.4 22.1 21.8 21.6 21.3 21.2 21.0 20.8 20.6 20.5 20.4 20.3 20.1 20.1 22.7 23.0 23.5 23.8 24.0 24.2 24.4 24.3 23.8 23.2 22.8 22.5 22.2 21.9 21.7 21.4 21.3 21.1 20.9 20.8 20.6 20.5 20.4 20.2 20.1 20.1 22.4 22.6 22.9 23.2 23.3 23.5 23.7 23.7 23.5 23.0 22.5 22.2 22.0 21.7 21.5 21.4 21.2 21.0 20.9 20.7 20.6 20.5 20.3 20.2 20.1 20.1 22.1 22.3 22.5 22.7 22.8 22.9 23.0 23.2 23.1 22.7 22.3 22.0 21.8 21.6 21.4 21.2 21.1 20.9 20.8 20.7 20.6 20.5 20.3 20.2 20.1 20.1 21.8 21.9 22.1 22.3 22.4 22.5 22.5 22.6 22.6 22.5 22.2 21.9 21.6 21.5 21.3 21.1 21.0 20.9 20.7 20.6 20.5 20.4 20.3 20.2 20.1 20.1 21.6 21.7 21.8 22.0 22.0 22.1 22.2 22.2 22.2 22.2 22.0 21.8 21.5 21.3 21.2 21.0 20.9 20.8 20.7 20.6 20.5 20.4 20.3 20.2 20.1 20.1 21.3 21.4 21.6 21.7 21.8 21.8 21.8 21.9 21.9 21.9 21.8 21.7 21.4 21.2 21.1 21.0 20.8 20.7 20.6 20.5 20.4 20.4 20.3 20.2 20.1 20.1 21.2 21.2 21.4 21.5 21.6 21.5 21.5 21.6 21.7 21.6 21.5 21.5 21.4 21.2 21.0 20.9 20.8 20.7 20.6 20.5 20.4 20.3 20.2 20.2 20.1 20.1 21.0 21.1 21.2 21.3 21.3 21.3 21.3 21.4 21.5 21.4 21.3 21.3 21.3 21.2 21.0 20.8 20.7 20.6 20.5 20.5 20.4 20.3 20.2 20.2 20.1 20.1 20.9 21.0 21.1 21.1 21.1 21.1 21.2 21.2 21.3 21.2 21.1 21.1 21.1 21.1 21.0 20.8 20.7 20.6 20.5 20.4 20.4 20.3 20.2 20.1 20.1 20.0 20.8 20.8 20.9 21.0 21.0 21.0 21.0 21.0 21.1 21.1 21.0 20.9 20.9 21.0 21.0 20.8 20.7 20.6 20.5 20.4 20.3 20.3 20.2 20.1 20.1 20.0 20.7 20.7 20.8 20.9 20.9 20.9 20.8 20.9 20.9 21.0 20.9 20.8 20.7 20.8 20.9 20.8 20.7 20.5 20.4 20.4 20.3 20.3 20.2 20.1 20.1 20.0 20.6 20.6 20.7 20.8 20.8 20.7 20.7 20.7 20.8 20.9 20.8 20.7 20.6 20.7 20.7 20.7 20.7 20.5 20.4 20.3 20.3 20.2 20.2 20.1 20.1 20.0 20.5 20.6 20.7 20.7 20.7 20.6 20.6 20.6 20.7 20.7 20.7 20.6 20.6 20.5 20.6 20.6 20.6 20.5 20.4 20.3 20.3 20.2 20.2 20.1 20.1 20.0 20.4 20.5 20.6 20.6 20.6 20.5 20.5 20.5 20.6 20.6 20.6 20.5 20.5 20.4 20.5 20.5 20.5 20.5 20.4 20.3 20.3 20.2 20.2 20.1 20.0 20.0 20.4 20.4 20.5 20.5 20.5 20.4 20.4 20.4 20.5 20.5 20.5 20.5 20.4 20.4 20.4 20.4 20.4 20.5 20.4 20.3 20.2 20.2 20.1 20.1 20.0 20.0 20.3 20.4 20.4 20.4 20.4 20.4 20.3 20.4 20.4 20.5 20.4 20.4 20.3 20.3 20.3 20.3 20.3 20.4 20.4 20.3 20.2 20.2 20.1 20.1 20.0 20.0 20.3 20.3 20.3 20.3 20.3 20.3 20.3 20.3 20.3 20.4 20.4 20.3 20.3 20.3 20.3 20.3 20.3 20.3 20.3 20.3 20.3 20.2 20.1 20.1 20.0 20.0 20.2 20.2 20.3 20.3 20.3 20.2 20.2 20.2 20.3 20.3 20.3 20.3 20.2 20.2 20.2 20.2 20.2 20.2 20.2 20.2 20.2 20.2 20.1 20.1 20.0 20.0 20.2 20.2 20.2 20.2 20.2 20.2 20.2 20.2 20.2 20.2 20.2 20.2 20.2 20.2 20.2 20.2 20.2 20.2 20.2 20.2 20.2 20.2 20.1 20.1 20.0 20.0 20.1 20.1 20.1 20.1 20.1 20.1 20.1 20.1 20.1 20.2 20.2 20.1 20.1 20.1 20.1 20.1 20.1 20.1 20.1 20.1 20.1 20.1 20.1 20.1 20.0 20.0 20.1 20.1 20.1 20.1 20.1 20.1 20.1 20.1 20.1 20.1 20.1 20.1 20.1 20.1 20.1 20.1 20.1 20.1 20.1 20.1 20.1 20.1 20.1 20.1 20.0 20.0 20.0 20.0 20.0 20.0 20.0 20.0 20.0 20.0 20.0 20.1 20.1 20.0 20.0 20.0 20.0 20.0 20.0 20.0 20.0 20.0 20.0 20.0 20.0 20.0 20.0 20.0 20.0 20.0 20.0 20.0 20.0 20.0 20.0 20.0 20.0 20.0 20.0 20.0 20.0 20.0 20.0 20.0 20.0 20.0 20.0 20.0 20.0 20.0 20.0 20.0 20.0 20.0 23.1 24.9 26.1 27.2 28.0 29.1 29.7 28.8 26.6 25.1 24.4 23.7 23.1 22.6 22.2 21.9 21.6 21.4 21.2 21.0 20.8 20.6 20.5 20.3 20.1 20.1 23.6 24.2 25.0 25.7 26.4 27.2 27.5 26.5 25.1 24.3 23.7 23.2 22.7 22.3 22.0 21.7 21.5 21.2 21.0 20.8 20.7 20.5 20.4 20.3 20.1 20.1 23.2 23.6 24.2 24.8 25.3 25.8 25.9 25.3 24.4 23.8 23.3 22.8 22.5 22.1 21.8 21.6 21.3 21.1 21.0 20.8 20.6 20.5 20.4 20.2 20.1 20.1 22.8 23.1 23.5 23.9 24.2 24.6 24.7 24.5 23.9 23.4 22.9 22.6 22.2 21.9 21.7 21.4 21.2 21.1 20.9 20.7 20.6 20.5 20.3 20.2 20.1 20.1 22.4 22.6 22.9 23.2 23.5 23.8 24.0 23.9 23.5 23.0 22.6 22.3 22.0 21.7 21.5 21.3 21.2 21.0 20.8 20.7 20.6 20.4 20.3 20.2 20.1 20.1 22.1 22.3 22.4 22.7 23.0 23.1 23.3 23.3 23.1 22.7 22.3 22.0 21.8 21.6 21.4 21.2 21.1 20.9 20.8 20.7 20.5 20.4 20.3 20.2 20.1 20.1 21.8 21.9 22.1 22.3 22.5 22.6 22.7 22.7 22.7 22.5 22.2 21.9 21.6 21.4 21.3 21.1 21.0 20.8 20.7 20.6 20.5 20.4 20.3 20.2 20.1 20.1 21.6 21.7 21.8 22.0 22.1 22.2 22.2 22.2 22.3 22.2 22.0 21.8 21.5 21.3 21.2 21.0 20.9 20.8 20.6 20.5 20.5 20.4 20.3 20.2 20.1 20.1 21.3 21.4 21.5 21.7 21.8 21.8 21.9 21.9 21.9 21.9 21.8 21.7 21.5 21.2 21.1 20.9 20.8 20.7 20.6 20.5 20.4 20.3 20.3 20.2 20.1 20.1 21.1 21.2 21.3 21.5 21.5 21.5 21.6 21.6 21.7 21.6 21.5 21.5 21.4 21.2 21.0 20.9 20.7 20.6 20.5 20.5 20.4 20.3 20.2 20.2 20.1 20.0 21.0 21.0 21.2 21.3 21.3 21.3 21.3 21.4 21.4 21.4 21.3 21.3 21.3 21.2 21.0 20.8 20.7 20.6 20.5 20.4 20.3 20.3 20.2 20.1 20.1 20.0 20.8 20.9 21.0 21.1 21.1 21.1 21.1 21.2 21.2 21.2 21.1 21.1 21.1 21.1 21.0 20.8 20.6 20.6 20.5 20.4 20.3 20.3 20.2 20.1 20.1 20.0 20.7 20.8 20.9 21.0 21.0 21.0 21.0 21.0 21.1 21.1 20.9 20.9 20.9 21.0 21.0 20.8 20.6 20.5 20.4 20.4 20.3 20.2 20.2 20.1 20.1 20.0 20.6 20.7 20.8 20.8 20.8 20.8 20.8 20.9 20.9 20.9 20.8 20.7 20.7 20.8 20.9 20.8 20.6 20.5 20.4 20.3 20.3 20.2 20.2 20.1 20.1 20.0 20.5 20.6 20.7 20.7 20.7 20.7 20.7 20.7 20.8 20.8 20.7 20.6 20.6 20.6 20.7 20.7 20.6 20.5 20.4 20.3 20.3 20.2 20.2 20.1 20.1 20.0 20.5 20.5 20.6 20.6 20.6 20.6 20.6 20.6 20.7 20.7 20.6 20.6 20.5 20.5 20.6 20.6 20.6 20.5 20.4 20.3 20.2 20.2 20.1 20.1 20.0 20.0 20.4 20.4 20.5 20.5 20.5 20.5 20.5 20.5 20.6 20.6 20.6 20.5 20.4 20.4 20.4 20.5 20.5 20.5 20.4 20.3 20.2 20.2 20.1 20.1 20.0 20.0 20.3 20.4 20.4 20.5 20.4 20.4 20.4 20.4 20.5 20.5 20.5 20.4 20.4 20.4 20.4 20.4 20.4 20.4 20.4 20.3 20.2 20.2 20.1 20.1 20.0 20.0 20.3 20.3 20.4 20.4 20.4 20.3 20.3 20.3 20.4 20.4 20.4 20.4 20.3 20.3 20.3 20.3 20.3 20.4 20.4 20.3 20.2 20.2 20.1 20.1 20.0 20.0 20.2 20.3 20.3 20.3 20.3 20.3 20.3 20.3 20.3 20.3 20.3 20.3 20.3 20.2 20.2 20.2 20.2 20.3 20.3 20.3 20.3 20.2 20.1 20.1 20.0 20.0 20.2 20.2 20.2 20.2 20.2 20.2 20.2 20.2 20.2 20.3 20.3 20.2 20.2 20.2 20.2 20.2 20.2 20.2 20.2 20.2 20.2 20.2 20.1 20.1 20.0 20.0 20.1 20.2 20.2 20.2 20.2 20.2 20.2 20.2 20.2 20.2 20.2 20.2 20.2 20.1 20.1 20.1 20.1 20.1 20.1 20.2 20.2 20.2 20.1 20.1 20.0 20.0 20.1 20.1 20.1 20.1 20.1 20.1 20.1 20.1 20.1 20.1 20.1 20.1 20.1 20.1 20.1 20.1 20.1 20.1 20.1 20.1 20.1 20.1 20.1 20.1 20.0 20.0 20.1 20.1 20.1 20.1 20.1 20.1 20.1 20.1 20.1 20.1 20.1 20.1 20.1 20.1 20.1 20.1 20.1 20.1 20.1 20.1 20.1 20.1 20.1 20.1 20.0 20.0 20.0 20.0 20.0 20.0 20.0 20.0 20.0 20.0 20.0 20.0 20.0 20.0 20.0 20.0 20.0 20.0 20.0 20.0 20.0 20.0 20.0 20.0 20.0 20.0 20.0 20.0 20.0 20.0 20.0 20.0 20.0 20.0 20.0 20.0 20.0 20.0 20.0 20.0 20.0 20.0 20.0 20.0 20.0 20.0 20.0 20.0 20.0 20.0 20.0 20.0 20.0 20.0 23.3 25.3 26.8 29.0 30.8 32.1 32.3 31.0 28.4 25.8 24.7 24.0 23.3 22.8 22.3 21.9 21.6 21.4 21.1 20.9 20.7 20.6 20.4 20.3 20.1 20.1 23.8 24.5 25.3 26.0 27.0 28.3 28.6 27.2 25.6 24.8 24.1 23.4 22.9 22.4 22.1 21.7 21.4 21.2 21.0 20.8 20.6 20.5 20.4 20.2 20.1 20.1 23.3 23.8 24.3 24.9 25.8 26.7 26.8 25.9 24.8 24.1 23.5 23.0 22.6 22.2 21.9 21.6 21.3 21.1 20.9 20.7 20.6 20.5 20.3 20.2 20.1 20.0 22.9 23.3 23.6 24.0 24.6 25.3 25.4 24.9 24.2 23.6 23.1 22.7 22.3 22.0 21.7 21.4 21.2 21.0 20.9 20.7 20.6 20.4 20.3 20.2 20.1 20.0 22.5 22.8 23.0 23.3 23.7 24.3 24.5 24.2 23.7 23.2 22.7 22.3 22.0 21.8 21.5 21.3 21.1 20.9 20.8 20.7 20.5 20.4 20.3 20.2 20.1 20.0 22.2 22.3 22.5 22.9 23.3 23.6 23.7 23.5 23.2 22.8 22.4 22.1 21.8 21.6 21.4 21.2 21.0 20.9 20.7 20.6 20.5 20.4 20.3 20.2 20.1 20.0 21.9 22.1 22.2 22.6 22.9 22.9 22.9 22.9 22.7 22.6 22.3 21.9 21.6 21.4 21.2 21.1 20.9 20.8 20.7 20.5 20.4 20.4 20.3 20.2 20.1 20.0 21.7 21.9 22.1 22.4 22.5 22.3 22.4 22.4 22.3 22.2 22.1 21.8 21.5 21.3 21.1 20.9 20.8 20.7 20.6 20.5 20.4 20.3 20.2 20.2 20.1 20.0 21.6 21.8 22.0 22.2 22.1 22.0 21.9 22.0 22.0 21.9 21.8 21.7 21.5 21.2 21.0 20.9 20.7 20.6 20.5 20.4 20.4 20.3 20.2 20.1 20.1 20.0 21.4 21.6 21.9 22.0 21.8 21.6 21.6 21.7 21.7 21.6 21.5 21.5 21.4 21.2 20.9 20.8 20.7 20.6 20.5 20.4 20.3 20.3 20.2 20.1 20.1 20.0 21.2 21.4 21.7 21.7 21.4 21.3 21.4 21.4 21.4 21.4 21.3 21.3 21.3 21.2 20.9 20.7 20.6 20.5 20.5 20.4 20.3 20.2 20.2 20.1 20.1 20.0 21.0 21.3 21.5 21.4 21.2 21.1 21.1 21.2 21.2 21.2 21.1 21.1 21.1 21.1 20.9 20.7 20.6 20.5 20.4 20.3 20.3 20.2 20.2 20.1 20.1 20.0 20.8 21.2 21.3 21.1 21.0 21.0 20.9 21.0 21.0 21.0 20.9 20.9 20.9 21.0 20.9 20.8 20.6 20.4 20.4 20.3 20.3 20.2 20.1 20.1 20.1 20.0 20.7 21.0 21.0 20.9 20.8 20.8 20.8 20.8 20.9 20.8 20.8 20.7 20.7 20.8 20.8 20.8 20.6 20.4 20.3 20.3 20.2 20.2 20.1 20.1 20.0 20.0 20.6 20.7 20.6 20.6 20.7 20.7 20.7 20.7 20.7 20.7 20.7 20.6 20.6 20.6 20.7 20.7 20.6 20.5 20.3 20.3 20.2 20.2 20.1 20.1 20.0 20.0 20.4 20.4 20.5 20.5 20.6 20.6 20.5 20.6 20.6 20.6 20.6 20.5 20.5 20.5 20.5 20.6 20.6 20.5 20.4 20.3 20.2 20.2 20.1 20.1 20.0 20.0 20.3 20.3 20.4 20.5 20.5 20.5 20.4 20.5 20.5 20.5 20.5 20.4 20.4 20.4 20.4 20.5 20.5 20.5 20.4 20.3 20.2 20.1 20.1 20.1 20.0 20.0 20.3 20.3 20.3 20.4 20.4 20.4 20.4 20.4 20.4 20.4 20.4 20.4 20.3 20.3 20.3 20.3 20.4 20.4 20.4 20.3 20.2 20.1 20.1 20.1 20.0 20.0 20.2 20.2 20.3 20.3 20.3 20.3 20.3 20.3 20.3 20.4 20.3 20.3 20.3 20.3 20.3 20.3 20.3 20.3 20.4 20.3 20.2 20.1 20.1 20.1 20.0 20.0 20.2 20.2 20.2 20.3 20.3 20.2 20.2 20.2 20.3 20.3 20.3 20.2 20.2 20.2 20.2 20.2 20.2 20.2 20.3 20.3 20.2 20.2 20.1 20.1 20.0 20.0 20.1 20.2 20.2 20.2 20.2 20.2 20.2 20.2 20.2 20.2 20.2 20.2 20.2 20.2 20.2 20.2 20.2 20.2 20.2 20.2 20.2 20.2 20.1 20.1 20.0 20.0 20.1 20.1 20.1 20.2 20.2 20.1 20.1 20.1 20.2 20.2 20.2 20.1 20.1 20.1 20.1 20.1 20.1 20.1 20.1 20.1 20.2 20.2 20.1 20.1 20.0 20.0 20.1 20.1 20.1 20.1 20.1 20.1 20.1 20.1 20.1 20.1 20.1 20.1 20.1 20.1 20.1 20.1 20.1 20.1 20.1 20.1 20.1 20.1 20.1 20.1 20.0 20.0 20.0 20.1 20.1 20.1 20.1 20.1 20.1 20.1 20.1 20.1 20.1 20.1 20.1 20.1 20.1 20.1 20.1 20.1 20.1 20.1 20.1 20.1 20.1 20.1 20.0 20.0 20.0 20.0 20.0 20.0 20.0 20.0 20.0 20.0 20.0 20.0 20.0 20.0 20.0 20.0 20.0 20.0 20.0 20.0 20.0 20.0 20.0 20.0 20.0 20.0 20.0 20.0 20.0 20.0 20.0 20.0 20.0 20.0 20.0 20.0 20.0 20.0 20.0 20.0 20.0 20.0 20.0 20.0 20.0 20.0 20.0 20.0 20.0 20.0 20.0 20.0 20.0 20.0 23.5 25.7 27.5 33.9 38.0 37.0 36.6 36.6 32.6 26.9 25.3 24.4 23.6 23.0 22.5 22.1 21.7 21.4 21.2 21.0 20.8 20.6 20.4 20.3 20.1 20.1 24.0 24.8 25.6 26.8 28.0 29.0 29.2 27.9 26.3 25.3 24.4 23.7 23.1 22.6 22.2 21.8 21.5 21.3 21.0 20.8 20.7 20.5 20.4 20.2 20.1 20.1 23.5 24.1 24.6 25.1 26.1 27.1 27.2 26.2 25.2 24.5 23.8 23.2 22.7 22.3 22.0 21.7 21.4 21.2 21.0 20.8 20.6 20.5 20.3 20.2 20.1 20.0 23.0 23.5 23.9 24.2 25.0 25.8 25.8 25.1 24.4 23.9 23.3 22.8 22.4 22.1 21.8 21.5 21.3 21.1 20.9 20.7 20.6 20.4 20.3 20.2 20.1 20.0 22.6 23.0 23.2 23.6 24.2 24.7 24.8 24.4 23.8 23.3 22.8 22.4 22.1 21.8 21.6 21.4 21.2 21.0 20.8 20.7 20.5 20.4 20.3 20.2 20.1 20.0 22.3 22.6 22.9 23.3 23.7 24.0 24.0 23.7 23.3 22.9 22.5 22.1 21.8 21.6 21.4 21.2 21.0 20.9 20.7 20.6 20.5 20.4 20.3 20.2 20.1 20.0 22.1 22.5 22.8 23.1 23.2 23.1 23.2 23.1 22.8 22.6 22.3 22.0 21.6 21.4 21.2 21.1 20.9 20.8 20.7 20.6 20.4 20.3 20.2 20.2 20.1 20.0 22.1 22.7 22.9 23.0 22.8 22.6 22.6 22.5 22.4 22.3 22.1 21.8 21.6 21.3 21.1 21.0 20.8 20.7 20.6 20.5 20.4 20.3 20.2 20.1 20.1 20.0 22.1 22.8 23.2 23.0 22.4 22.1 22.1 22.1 22.0 21.9 21.8 21.7 21.5 21.2 21.0 20.9 20.7 20.6 20.5 20.5 20.4 20.3 20.2 20.1 20.1 20.0 21.8 22.1 22.5 22.5 22.0 21.7 21.7 21.7 21.7 21.6 21.6 21.5 21.4 21.2 20.9 20.8 20.7 20.6 20.5 20.4 20.3 20.3 20.2 20.1 20.1 20.0 21.4 21.3 21.6 21.9 21.6 21.4 21.4 21.5 21.4 21.4 21.3 21.3 21.3 21.1 20.9 20.7 20.6 20.5 20.4 20.4 20.3 20.2 20.2 20.1 20.1 20.0 21.1 21.2 21.4 21.6 21.3 21.2 21.2 21.2 21.2 21.1 21.1 21.1 21.1 21.1 20.9 20.7 20.6 20.5 20.4 20.3 20.3 20.2 20.1 20.1 20.0 20.0 21.0 21.1 21.2 21.2 21.0 21.0 21.0 21.0 21.0 21.0 20.9 20.9 20.9 20.9 20.9 20.7 20.6 20.5 20.4 20.3 20.2 20.2 20.1 20.1 20.0 20.0 20.9 20.9 20.8 20.9 20.8 20.8 20.8 20.8 20.9 20.8 20.7 20.7 20.7 20.8 20.8 20.7 20.6 20.5 20.4 20.3 20.2 20.2 20.1 20.1 20.0 20.0 20.7 20.6 20.5 20.7 20.7 20.7 20.7 20.7 20.7 20.7 20.6 20.6 20.6 20.6 20.7 20.7 20.6 20.5 20.3 20.3 20.2 20.2 20.1 20.1 20.0 20.0 20.4 20.4 20.4 20.5 20.6 20.6 20.6 20.6 20.6 20.6 20.5 20.5 20.5 20.5 20.5 20.6 20.6 20.5 20.3 20.3 20.2 20.2 20.1 20.1 20.0 20.0 20.3 20.3 20.3 20.4 20.5 20.5 20.5 20.5 20.5 20.5 20.5 20.4 20.4 20.4 20.4 20.4 20.5 20.4 20.4 20.3 20.2 20.1 20.1 20.1 20.0 20.0 20.2 20.2 20.3 20.4 20.4 20.4 20.4 20.4 20.4 20.4 20.4 20.3 20.3 20.3 20.3 20.3 20.4 20.4 20.4 20.3 20.2 20.1 20.1 20.1 20.0 20.0 20.2 20.2 20.3 20.3 20.3 20.3 20.3 20.3 20.3 20.4 20.3 20.3 20.3 20.2 20.2 20.2 20.3 20.3 20.3 20.3 20.2 20.1 20.1 20.1 20.0 20.0 20.2 20.2 20.2 20.2 20.3 20.2 20.2 20.2 20.3 20.3 20.3 20.2 20.2 20.2 20.2 20.2 20.2 20.2 20.3 20.3 20.2 20.2 20.1 20.1 20.0 20.0 20.1 20.1 20.2 20.2 20.2 20.2 20.2 20.2 20.2 20.2 20.2 20.2 20.2 20.2 20.2 20.1 20.1 20.1 20.2 20.2 20.2 20.2 20.1 20.1 20.0 20.0 20.1 20.1 20.1 20.1 20.1 20.1 20.1 20.1 20.2 20.2 20.2 20.1 20.1 20.1 20.1 20.1 20.1 20.1 20.1 20.1 20.2 20.1 20.1 20.1 20.0 20.0 20.1 20.1 20.1 20.1 20.1 20.1 20.1 20.1 20.1 20.1 20.1 20.1 20.1 20.1 20.1 20.1 20.1 20.1 20.1 20.1 20.1 20.1 20.1 20.1 20.0 20.0 20.0 20.1 20.1 20.1 20.1 20.1 20.1 20.1 20.1 20.1 20.1 20.1 20.1 20.1 20.0 20.0 20.0 20.0 20.0 20.0 20.0 20.1 20.1 20.1 20.0 20.0 20.0 20.0 20.0 20.0 20.0 20.0 20.0 20.0 20.0 20.0 20.0 20.0 20.0 20.0 20.0 20.0 20.0 20.0 20.0 20.0 20.0 20.0 20.0 20.0 20.0 20.0 20.0 20.0 20.0 20.0 20.0 20.0 20.0 20.0 20.0 20.0 20.0 20.0 20.0 20.0 20.0 20.0 20.0 20.0 20.0 20.0 20.0 20.0 20.0 20.0 20.0 20.0 23.6 26.1 28.1 36.3 41.1 38.5 40.6 41.4 34.3 27.5 25.7 24.6 23.8 23.3 22.7 22.3 21.9 21.6 21.3 21.1 20.8 20.6 20.5 20.3 20.1 20.1 24.1 25.0 26.1 27.5 28.7 29.0 29.3 28.4 26.8 25.6 24.7 23.9 23.3 22.9 22.4 22.0 21.7 21.4 21.2 20.9 20.7 20.6 20.4 20.3 20.1 20.1 23.6 24.2 24.9 25.4 26.3 27.1 27.3 26.5 25.5 24.8 24.0 23.4 22.9 22.6 22.2 21.9 21.6 21.3 21.1 20.9 20.7 20.5 20.4 20.2 20.1 20.1 23.1 23.6 24.1 24.7 25.5 26.0 25.9 25.3 24.6 24.0 23.5 23.0 22.6 22.3 22.0 21.7 21.4 21.2 21.0 20.8 20.7 20.5 20.4 20.2 20.1 20.0 22.7 23.1 23.6 24.1 24.7 25.0 24.9 24.5 23.9 23.4 23.0 22.6 22.3 22.0 21.8 21.5 21.3 21.1 20.9 20.7 20.6 20.4 20.3 20.2 20.1 20.0 22.5 22.9 23.4 23.8 24.0 24.1 24.1 23.8 23.4 23.0 22.6 22.3 22.0 21.8 21.6 21.4 21.2 21.0 20.8 20.7 20.5 20.4 20.3 20.2 20.1 20.0 22.5 23.1 23.5 23.6 23.4 23.4 23.4 23.2 22.9 22.7 22.4 22.1 21.8 21.6 21.4 21.2 21.1 20.9 20.8 20.6 20.5 20.4 20.3 20.2 20.1 20.0 22.8 23.5 23.9 23.6 23.0 22.8 22.8 22.6 22.4 22.3 22.1 21.9 21.6 21.4 21.2 21.1 21.0 20.8 20.7 20.6 20.5 20.3 20.3 20.2 20.1 20.0 23.0 23.9 24.3 23.6 22.6 22.3 22.3 22.2 22.1 22.0 21.9 21.7 21.5 21.3 21.1 21.0 20.9 20.8 20.6 20.5 20.4 20.3 20.2 20.2 20.1 20.0 22.3 22.8 23.3 23.0 22.2 21.9 21.9 21.8 21.8 21.7 21.6 21.5 21.4 21.2 21.0 20.9 20.8 20.7 20.6 20.5 20.4 20.3 20.2 20.1 20.1 20.0 21.5 21.5 21.9 22.2 21.8 21.6 21.6 21.6 21.5 21.4 21.3 21.3 21.3 21.1 21.0 20.8 20.7 20.6 20.5 20.4 20.3 20.3 20.2 20.1 20.1 20.0 21.3 21.3 21.5 21.7 21.4 21.3 21.3 21.3 21.3 21.2 21.1 21.1 21.1 21.0 20.9 20.8 20.7 20.6 20.5 20.4 20.3 20.2 20.2 20.1 20.1 20.0 21.2 21.2 21.2 21.3 21.1 21.1 21.1 21.1 21.1 21.0 21.0 20.9 20.9 20.9 20.8 20.7 20.6 20.5 20.4 20.4 20.3 20.2 20.2 20.1 20.0 20.0 21.0 20.9 20.8 21.0 20.9 20.9 20.9 20.9 21.0 20.9 20.8 20.8 20.8 20.8 20.8 20.7 20.6 20.5 20.4 20.3 20.3 20.2 20.1 20.1 20.0 20.0 20.8 20.6 20.5 20.7 20.8 20.8 20.8 20.8 20.8 20.8 20.7 20.6 20.6 20.6 20.7 20.6 20.6 20.5 20.4 20.3 20.2 20.2 20.1 20.1 20.0 20.0 20.5 20.4 20.4 20.6 20.6 20.6 20.6 20.7 20.7 20.7 20.6 20.5 20.5 20.5 20.5 20.5 20.5 20.5 20.4 20.3 20.2 20.2 20.1 20.1 20.0 20.0 20.3 20.3 20.4 20.5 20.6 20.5 20.5 20.6 20.6 20.6 20.5 20.5 20.4 20.4 20.4 20.5 20.5 20.4 20.4 20.3 20.2 20.2 20.1 20.1 20.0 20.0 20.2 20.3 20.4 20.4 20.5 20.4 20.4 20.5 20.5 20.5 20.4 20.4 20.4 20.4 20.4 20.4 20.4 20.4 20.3 20.3 20.2 20.2 20.1 20.1 20.0 20.0 20.2 20.2 20.3 20.4 20.4 20.3 20.3 20.4 20.4 20.4 20.4 20.3 20.3 20.3 20.3 20.3 20.3 20.3 20.3 20.3 20.2 20.2 20.1 20.1 20.0 20.0 20.2 20.2 20.2 20.3 20.3 20.3 20.3 20.3 20.3 20.3 20.3 20.3 20.2 20.2 20.2 20.2 20.2 20.2 20.2 20.3 20.2 20.2 20.1 20.1 20.0 20.0 20.1 20.2 20.2 20.2 20.2 20.2 20.2 20.2 20.3 20.3 20.2 20.2 20.2 20.2 20.2 20.2 20.2 20.2 20.2 20.2 20.2 20.2 20.1 20.1 20.0 20.0 20.1 20.1 20.2 20.2 20.2 20.1 20.1 20.2 20.2 20.2 20.2 20.2 20.1 20.1 20.1 20.1 20.1 20.1 20.1 20.1 20.1 20.1 20.1 20.1 20.0 20.0 20.1 20.1 20.1 20.1 20.1 20.1 20.1 20.1 20.1 20.1 20.1 20.1 20.1 20.1 20.1 20.1 20.1 20.1 20.1 20.1 20.1 20.1 20.1 20.1 20.0 20.0 20.1 20.1 20.1 20.1 20.1 20.1 20.1 20.1 20.1 20.1 20.1 20.1 20.1 20.1 20.1 20.1 20.1 20.1 20.0 20.0 20.0 20.1 20.1 20.1 20.0 20.0 20.0 20.0 20.0 20.0 20.0 20.0 20.0 20.0 20.0 20.0 20.0 20.0 20.0 20.0 20.0 20.0 20.0 20.0 20.0 20.0 20.0 20.0 20.0 20.0 20.0 20.0 20.0 20.0 20.0 20.0 20.0 20.0 20.0 20.0 20.0 20.0 20.0 20.0 20.0 20.0 20.0 20.0 20.0 20.0 20.0 20.0 20.0 20.0 20.0 20.0 20.0 20.0 23.8 26.7 28.7 35.3 38.4 35.8 39.7 39.1 31.4 27.5 26.0 24.9 24.1 23.5 22.9 22.5 22.0 21.7 21.4 21.1 20.9 20.7 20.5 20.3 20.2 20.1 24.2 25.4 26.5 27.8 28.8 28.9 29.2 28.4 26.8 25.8 25.0 24.2 23.6 23.1 22.6 22.2 21.8 21.5 21.3 21.0 20.8 20.6 20.4 20.3 20.1 20.1 23.6 24.4 25.1 25.8 26.6 27.2 27.5 26.7 25.7 25.0 24.3 23.7 23.2 22.8 22.4 22.1 21.7 21.5 21.2 21.0 20.8 20.6 20.4 20.3 20.1 20.1 23.3 23.8 24.5 25.2 25.8 26.1 26.1 25.4 24.6 24.1 23.6 23.2 22.8 22.5 22.2 21.9 21.6 21.4 21.1 20.9 20.7 20.6 20.4 20.2 20.1 20.1 23.0 23.5 24.2 24.8 25.0 25.0 24.9 24.5 23.9 23.5 23.1 22.8 22.5 22.2 21.9 21.7 21.4 21.2 21.0 20.8 20.6 20.5 20.4 20.2 20.1 20.0 22.9 23.4 24.0 24.3 24.3 24.1 24.1 23.9 23.5 23.1 22.7 22.4 22.2 22.0 21.8 21.6 21.3 21.1 20.9 20.8 20.6 20.5 20.3 20.2 20.1 20.0 22.9 23.5 24.1 24.2 23.8 23.5 23.5 23.3 23.0 22.8 22.4 22.2 21.9 21.7 21.6 21.4 21.2 21.1 20.9 20.7 20.6 20.4 20.3 20.2 20.1 20.0 23.0 23.6 24.3 24.3 23.5 23.0 22.9 22.7 22.5 22.4 22.2 21.9 21.7 21.5 21.4 21.3 21.1 21.0 20.8 20.7 20.5 20.4 20.3 20.2 20.1 20.0 22.9 23.8 24.7 24.1 23.0 22.5 22.5 22.3 22.2 22.0 21.9 21.7 21.6 21.4 21.3 21.2 21.0 20.9 20.8 20.6 20.5 20.4 20.3 20.2 20.1 20.0 22.3 23.2 23.9 23.3 22.4 22.1 22.1 22.0 21.9 21.8 21.7 21.5 21.4 21.3 21.2 21.1 20.9 20.8 20.7 20.6 20.5 20.4 20.3 20.2 20.1 20.0 21.7 22.2 22.6 22.3 21.9 21.7 21.8 21.7 21.7 21.5 21.4 21.4 21.3 21.2 21.0 20.9 20.8 20.7 20.6 20.5 20.4 20.3 20.2 20.1 20.1 20.0 21.5 21.9 22.0 21.7 21.5 21.5 21.5 21.5 21.5 21.4 21.2 21.2 21.1 21.1 21.0 20.8 20.8 20.7 20.6 20.5 20.4 20.3 20.2 20.1 20.1 20.0 21.4 21.6 21.5 21.3 21.2 21.2 21.3 21.3 21.3 21.2 21.1 21.0 21.0 20.9 20.9 20.8 20.7 20.6 20.5 20.4 20.4 20.3 20.2 20.1 20.1 20.0 21.2 21.1 21.0 21.0 21.0 21.1 21.1 21.1 21.1 21.1 21.0 20.9 20.8 20.8 20.8 20.7 20.6 20.6 20.5 20.4 20.3 20.3 20.2 20.1 20.1 20.0 20.8 20.7 20.7 20.8 20.9 20.9 20.9 20.9 21.0 20.9 20.8 20.8 20.7 20.7 20.7 20.7 20.6 20.5 20.4 20.4 20.3 20.2 20.2 20.1 20.1 20.0 20.5 20.5 20.5 20.7 20.8 20.7 20.8 20.8 20.9 20.8 20.7 20.7 20.6 20.6 20.6 20.6 20.5 20.5 20.4 20.4 20.3 20.2 20.2 20.1 20.0 20.0 20.3 20.4 20.5 20.6 20.7 20.6 20.6 20.7 20.7 20.7 20.6 20.6 20.5 20.5 20.5 20.5 20.5 20.4 20.4 20.3 20.3 20.2 20.1 20.1 20.0 20.0 20.3 20.4 20.5 20.5 20.6 20.5 20.5 20.6 20.6 20.6 20.5 20.5 20.5 20.4 20.4 20.4 20.4 20.4 20.4 20.3 20.3 20.2 20.1 20.1 20.0 20.0 20.3 20.3 20.4 20.4 20.4 20.4 20.4 20.5 20.5 20.5 20.5 20.4 20.4 20.4 20.4 20.4 20.4 20.3 20.3 20.3 20.2 20.2 20.1 20.1 20.0 20.0 20.2 20.3 20.3 20.4 20.4 20.3 20.3 20.4 20.4 20.4 20.4 20.3 20.3 20.3 20.3 20.3 20.3 20.3 20.3 20.3 20.2 20.2 20.1 20.1 20.0 20.0 20.2 20.2 20.3 20.3 20.3 20.2 20.2 20.3 20.3 20.3 20.3 20.3 20.2 20.2 20.2 20.2 20.2 20.2 20.2 20.2 20.2 20.2 20.1 20.1 20.0 20.0 20.1 20.2 20.2 20.2 20.2 20.2 20.2 20.2 20.2 20.3 20.2 20.2 20.2 20.2 20.2 20.2 20.2 20.2 20.2 20.2 20.2 20.2 20.1 20.1 20.0 20.0 20.1 20.1 20.1 20.2 20.1 20.1 20.1 20.1 20.2 20.2 20.2 20.1 20.1 20.1 20.1 20.1 20.1 20.1 20.1 20.1 20.1 20.1 20.1 20.1 20.0 20.0 20.1 20.1 20.1 20.1 20.1 20.1 20.1 20.1 20.1 20.1 20.1 20.1 20.1 20.1 20.1 20.1 20.1 20.1 20.1 20.1 20.1 20.1 20.1 20.1 20.0 20.0 20.0 20.0 20.1 20.0 20.0 20.0 20.0 20.0 20.0 20.1 20.1 20.0 20.0 20.0 20.0 20.0 20.0 20.0 20.0 20.0 20.0 20.0 20.0 20.0 20.0 20.0 20.0 20.0 20.0 20.0 20.0 20.0 20.0 20.0 20.0 20.0 20.0 20.0 20.0 20.0 20.0 20.0 20.0 20.0 20.0 20.0 20.0 20.0 20.0 20.0 20.0 20.0 26.0 29.1 30.5 36.0 37.8 34.4 35.6 34.7 29.8 27.2 26.0 25.0 24.2 23.5 23.0 22.5 22.1 21.7 21.4 21.1 20.9 20.7 20.5 20.3 20.2 20.1 25.7 26.9 27.2 28.1 29.2 29.2 28.9 28.1 26.8 25.9 25.1 24.4 23.8 23.2 22.8 22.3 21.9 21.6 21.3 21.1 20.8 20.6 20.4 20.3 20.1 20.1 23.9 24.6 25.3 26.1 26.8 27.3 27.5 26.7 25.7 25.0 24.4 23.9 23.3 22.9 22.6 22.2 21.9 21.5 21.2 21.0 20.8 20.6 20.4 20.3 20.1 20.1 23.5 24.0 24.8 25.5 25.8 26.2 26.2 25.5 24.7 24.2 23.8 23.4 23.0 22.6 22.3 22.0 21.7 21.5 21.2 20.9 20.7 20.6 20.4 20.3 20.1 20.1 23.4 23.9 24.6 25.1 25.1 25.1 25.0 24.6 24.0 23.5 23.2 22.9 22.6 22.4 22.1 21.8 21.6 21.3 21.1 20.9 20.7 20.5 20.4 20.2 20.1 20.1 23.2 23.8 24.4 24.7 24.5 24.2 24.1 23.9 23.6 23.2 22.8 22.5 22.3 22.1 21.9 21.7 21.5 21.2 21.0 20.8 20.7 20.5 20.4 20.2 20.1 20.1 23.0 23.6 24.4 24.6 24.0 23.7 23.6 23.4 23.1 22.8 22.5 22.2 22.1 21.9 21.7 21.6 21.4 21.2 21.0 20.8 20.6 20.5 20.3 20.2 20.1 20.1 22.7 23.4 24.4 24.5 23.7 23.2 23.1 23.0 22.7 22.5 22.2 22.0 21.8 21.7 21.6 21.4 21.3 21.1 20.9 20.8 20.6 20.4 20.3 20.2 20.1 20.0 22.3 23.2 24.3 24.0 23.0 22.6 22.6 22.5 22.3 22.2 22.0 21.8 21.7 21.5 21.4 21.3 21.2 21.0 20.9 20.7 20.6 20.4 20.3 20.2 20.1 20.0 21.9 22.7 23.2 22.7 22.2 22.2 22.3 22.2 22.0 21.9 21.8 21.6 21.5 21.4 21.3 21.2 21.1 21.0 20.8 20.7 20.5 20.4 20.3 20.2 20.1 20.0 21.6 21.9 22.0 21.8 21.8 21.9 21.9 21.9 21.8 21.7 21.6 21.4 21.3 21.2 21.1 21.1 21.0 20.9 20.8 20.6 20.5 20.4 20.3 20.2 20.1 20.0 21.4 21.6 21.5 21.4 21.5 21.6 21.7 21.6 21.6 21.5 21.4 21.3 21.2 21.1 21.0 21.0 20.9 20.8 20.7 20.6 20.5 20.4 20.2 20.2 20.1 20.0 21.2 21.3 21.1 21.2 21.3 21.4 21.4 21.4 21.4 21.3 21.2 21.1 21.1 21.0 20.9 20.9 20.8 20.7 20.6 20.5 20.4 20.3 20.2 20.1 20.1 20.0 21.0 21.0 20.9 21.0 21.2 21.2 21.3 21.3 21.3 21.2 21.1 21.0 21.0 20.9 20.9 20.8 20.7 20.7 20.6 20.5 20.4 20.3 20.2 20.1 20.1 20.0 20.8 20.7 20.8 20.9 21.0 21.0 21.1 21.1 21.1 21.1 21.0 20.9 20.9 20.8 20.8 20.7 20.7 20.6 20.5 20.5 20.4 20.3 20.2 20.1 20.1 20.0 20.6 20.6 20.7 20.8 20.9 20.9 20.9 20.9 21.0 21.0 20.9 20.8 20.8 20.7 20.7 20.7 20.6 20.6 20.5 20.4 20.4 20.3 20.2 20.1 20.1 20.0 20.5 20.5 20.7 20.8 20.8 20.7 20.7 20.8 20.9 20.9 20.8 20.7 20.7 20.6 20.6 20.6 20.6 20.5 20.5 20.4 20.3 20.3 20.2 20.1 20.1 20.0 20.4 20.5 20.6 20.7 20.6 20.6 20.6 20.7 20.8 20.7 20.7 20.6 20.6 20.5 20.5 20.5 20.5 20.5 20.4 20.4 20.3 20.3 20.2 20.1 20.1 20.0 20.3 20.4 20.5 20.5 20.5 20.5 20.5 20.6 20.6 20.6 20.6 20.5 20.5 20.4 20.4 20.4 20.4 20.4 20.4 20.4 20.3 20.2 20.2 20.1 20.0 20.0 20.3 20.3 20.4 20.4 20.4 20.4 20.4 20.5 20.5 20.5 20.5 20.4 20.4 20.4 20.3 20.3 20.3 20.4 20.3 20.3 20.3 20.2 20.2 20.1 20.0 20.0 20.2 20.3 20.3 20.4 20.3 20.3 20.3 20.4 20.4 20.4 20.4 20.3 20.3 20.3 20.3 20.3 20.3 20.3 20.3 20.3 20.3 20.2 20.2 20.1 20.0 20.0 20.2 20.2 20.3 20.3 20.2 20.2 20.2 20.3 20.3 20.3 20.3 20.3 20.2 20.2 20.2 20.2 20.2 20.2 20.2 20.2 20.2 20.2 20.2 20.1 20.0 20.0 20.1 20.2 20.2 20.2 20.2 20.1 20.1 20.2 20.2 20.2 20.2 20.2 20.2 20.1 20.1 20.1 20.1 20.1 20.2 20.1 20.2 20.2 20.1 20.1 20.0 20.0 20.1 20.1 20.1 20.1 20.1 20.1 20.1 20.1 20.1 20.1 20.1 20.1 20.1 20.1 20.1 20.1 20.1 20.1 20.1 20.1 20.1 20.1 20.1 20.1 20.0 20.0 20.0 20.1 20.1 20.1 20.1 20.0 20.0 20.0 20.1 20.1 20.1 20.1 20.0 20.0 20.0 20.0 20.0 20.0 20.0 20.0 20.0 20.0 20.0 20.0 20.0 20.0 20.0 20.0 20.0 20.0 20.0 20.0 20.0 20.0 20.0 20.0 20.0 20.0 20.0 20.0 20.0 20.0 20.0 20.0 20.0 20.0 20.0 20.0 20.0 20.0 20.0 20.0 32.4 36.9 34.5 36.1 36.2 33.4 33.7 35.1 32.7 29.4 27.1 25.3 24.5 23.8 23.2 22.7 22.2 21.8 21.4 21.1 20.9 20.7 20.5 20.3 20.1 20.1 32.0 33.5 29.2 28.3 29.3 29.2 28.7 28.1 27.1 26.1 25.3 24.6 24.1 23.6 23.0 22.5 22.1 21.7 21.4 21.1 20.8 20.6 20.4 20.3 20.1 20.1 25.5 26.4 25.7 26.1 26.8 27.3 27.3 26.5 25.7 25.1 24.5 24.1 23.7 23.3 22.8 22.4 22.0 21.6 21.3 21.0 20.8 20.5 20.4 20.2 20.1 20.1 23.9 24.5 24.9 25.5 25.8 26.2 26.2 25.5 24.8 24.3 23.8 23.5 23.3 22.9 22.6 22.2 21.9 21.5 21.2 20.9 20.7 20.5 20.4 20.2 20.1 20.1 23.6 24.2 24.7 25.2 25.2 25.3 25.2 24.7 24.2 23.7 23.2 23.0 22.8 22.6 22.3 22.0 21.7 21.4 21.2 20.9 20.7 20.5 20.4 20.2 20.1 20.1 23.4 23.9 24.6 24.9 24.7 24.4 24.3 24.0 23.7 23.2 22.9 22.6 22.5 22.3 22.1 21.8 21.6 21.3 21.1 20.9 20.7 20.5 20.4 20.2 20.1 20.1 23.1 23.7 24.6 24.7 24.1 23.9 23.8 23.5 23.2 22.9 22.6 22.3 22.2 22.0 21.9 21.7 21.5 21.3 21.1 20.8 20.7 20.5 20.3 20.2 20.1 20.0 22.8 23.4 24.4 24.3 23.5 23.3 23.3 23.1 22.8 22.6 22.3 22.1 21.9 21.8 21.7 21.6 21.4 21.3 21.0 20.8 20.6 20.5 20.3 20.2 20.1 20.0 22.4 23.2 23.8 23.4 22.8 22.7 22.8 22.7 22.5 22.3 22.1 21.9 21.8 21.6 21.5 21.4 21.3 21.2 21.0 20.8 20.6 20.4 20.3 20.2 20.1 20.0 22.0 22.5 22.7 22.3 22.2 22.3 22.4 22.3 22.2 22.0 21.9 21.7 21.6 21.5 21.4 21.3 21.2 21.1 21.0 20.8 20.6 20.4 20.3 20.2 20.1 20.0 21.6 21.8 21.8 21.8 21.9 22.0 22.1 22.0 21.9 21.9 21.7 21.6 21.4 21.3 21.2 21.2 21.1 21.0 20.9 20.8 20.6 20.4 20.3 20.2 20.1 20.0 21.4 21.5 21.5 21.5 21.6 21.8 21.9 21.8 21.8 21.7 21.6 21.4 21.3 21.2 21.1 21.1 21.0 20.9 20.8 20.7 20.6 20.4 20.3 20.2 20.1 20.0 21.1 21.2 21.2 21.3 21.5 21.6 21.6 21.6 21.6 21.5 21.4 21.3 21.2 21.1 21.1 21.0 20.9 20.8 20.7 20.6 20.5 20.4 20.3 20.2 20.1 20.0 20.9 21.0 21.1 21.2 21.3 21.4 21.4 21.4 21.4 21.4 21.3 21.2 21.1 21.0 21.0 20.9 20.8 20.8 20.7 20.6 20.5 20.4 20.2 20.2 20.1 20.0 20.8 20.9 21.0 21.1 21.2 21.2 21.2 21.3 21.3 21.3 21.2 21.1 21.0 21.0 20.9 20.8 20.8 20.7 20.6 20.6 20.5 20.4 20.2 20.2 20.1 20.0 20.7 20.8 20.9 21.0 21.1 21.0 21.0 21.1 21.2 21.1 21.1 21.0 20.9 20.9 20.8 20.8 20.7 20.7 20.6 20.5 20.4 20.4 20.3 20.2 20.1 20.0 20.6 20.7 20.8 20.9 20.9 20.9 20.9 20.9 21.0 21.0 20.9 20.9 20.8 20.8 20.7 20.7 20.7 20.6 20.5 20.5 20.4 20.3 20.2 20.2 20.1 20.0 20.6 20.6 20.7 20.8 20.7 20.7 20.7 20.8 20.9 20.9 20.8 20.8 20.7 20.7 20.6 20.6 20.6 20.6 20.5 20.5 20.4 20.3 20.2 20.1 20.1 20.0 20.5 20.5 20.6 20.6 20.6 20.6 20.6 20.7 20.7 20.7 20.7 20.6 20.6 20.6 20.5 20.5 20.5 20.5 20.5 20.4 20.4 20.3 20.2 20.1 20.1 20.0 20.4 20.4 20.5 20.5 20.5 20.4 20.4 20.5 20.6 20.6 20.5 20.5 20.5 20.5 20.4 20.4 20.4 20.4 20.4 20.4 20.3 20.3 20.2 20.1 20.1 20.0 20.3 20.3 20.4 20.4 20.4 20.3 20.3 20.4 20.5 20.5 20.4 20.4 20.4 20.3 20.3 20.3 20.3 20.4 20.4 20.3 20.3 20.3 20.2 20.1 20.1 20.0 20.2 20.3 20.3 20.3 20.3 20.2 20.2 20.3 20.3 20.3 20.3 20.3 20.3 20.2 20.2 20.2 20.2 20.3 20.3 20.3 20.2 20.2 20.2 20.1 20.1 20.0 20.2 20.2 20.2 20.2 20.2 20.2 20.2 20.2 20.2 20.2 20.2 20.2 20.2 20.2 20.2 20.2 20.2 20.2 20.2 20.2 20.2 20.2 20.2 20.1 20.1 20.0 20.1 20.1 20.1 20.1 20.1 20.1 20.1 20.1 20.1 20.2 20.2 20.1 20.1 20.1 20.1 20.1 20.1 20.1 20.1 20.1 20.1 20.1 20.1 20.1 20.1 20.0 20.1 20.1 20.1 20.1 20.1 20.0 20.0 20.1 20.1 20.1 20.1 20.1 20.1 20.0 20.0 20.1 20.1 20.1 20.0 20.0 20.0 20.1 20.1 20.1 20.0 20.0 20.0 20.0 20.0 20.0 20.0 20.0 20.0 20.0 20.0 20.0 20.0 20.0 20.0 20.0 20.0 20.0 20.0 20.0 20.0 20.0 20.0 20.0 20.0 20.0 20.0 20.0 40.6 43.3 37.0 35.1 32.8 31.7 33.4 37.2 35.9 31.0 27.7 25.5 24.8 24.1 23.5 22.8 22.4 22.1 21.8 21.4 21.0 20.7 20.4 20.3 20.1 20.1 38.8 37.1 29.7 28.2 28.7 28.7 28.4 28.3 27.5 26.3 25.5 24.9 24.4 23.9 23.3 22.7 22.3 22.0 21.7 21.4 21.0 20.6 20.4 20.2 20.1 20.1 26.5 27.3 26.0 26.2 26.9 27.1 27.0 26.5 25.8 25.2 24.6 24.3 23.9 23.5 23.0 22.6 22.2 21.9 21.6 21.3 20.9 20.5 20.3 20.2 20.1 20.1 24.1 24.8 25.2 25.6 25.9 26.2 26.1 25.6 25.0 24.4 23.9 23.7 23.4 23.1 22.7 22.4 22.0 21.7 21.5 21.1 20.8 20.5 20.3 20.2 20.1 20.1 23.7 24.4 25.0 25.3 25.4 25.5 25.4 24.9 24.4 23.8 23.4 23.2 23.0 22.7 22.4 22.1 21.8 21.6 21.4 21.1 20.7 20.5 20.4 20.2 20.1 20.1 23.6 24.2 24.8 25.1 24.9 24.7 24.6 24.3 23.9 23.4 23.0 22.8 22.6 22.4 22.2 22.0 21.7 21.5 21.3 21.0 20.7 20.5 20.4 20.2 20.1 20.0 23.5 24.0 24.7 24.8 24.2 24.0 23.9 23.7 23.4 23.0 22.7 22.5 22.3 22.1 22.0 21.9 21.7 21.5 21.2 21.0 20.7 20.5 20.3 20.2 20.1 20.0 23.3 23.7 24.4 24.2 23.5 23.4 23.3 23.2 22.9 22.7 22.5 22.3 22.1 21.9 21.8 21.7 21.6 21.4 21.2 20.9 20.7 20.5 20.3 20.2 20.1 20.0 22.8 23.3 23.6 23.3 22.9 22.9 22.9 22.8 22.6 22.5 22.3 22.1 21.9 21.8 21.7 21.6 21.5 21.4 21.2 20.9 20.7 20.5 20.3 20.2 20.1 20.0 22.3 22.6 22.6 22.4 22.4 22.6 22.6 22.5 22.4 22.3 22.1 21.9 21.7 21.6 21.5 21.4 21.4 21.3 21.1 20.9 20.7 20.5 20.3 20.2 20.1 20.0 21.9 21.9 21.9 21.9 22.1 22.3 22.4 22.3 22.2 22.1 21.9 21.8 21.6 21.5 21.4 21.3 21.3 21.2 21.1 20.9 20.7 20.5 20.3 20.2 20.1 20.0 21.7 21.6 21.6 21.7 21.9 22.1 22.1 22.1 21.9 21.9 21.8 21.6 21.5 21.4 21.3 21.2 21.2 21.1 21.0 20.8 20.7 20.5 20.3 20.2 20.1 20.0 21.4 21.4 21.4 21.5 21.7 21.8 21.9 21.8 21.8 21.7 21.6 21.5 21.4 21.3 21.2 21.1 21.1 21.0 20.9 20.8 20.6 20.5 20.3 20.2 20.1 20.0 21.2 21.2 21.3 21.4 21.5 21.6 21.6 21.6 21.6 21.6 21.5 21.4 21.3 21.2 21.1 21.1 21.0 20.9 20.8 20.7 20.6 20.4 20.3 20.2 20.1 20.0 21.0 21.1 21.1 21.2 21.3 21.4 21.4 21.4 21.4 21.4 21.4 21.3 21.2 21.1 21.1 21.0 20.9 20.8 20.8 20.7 20.6 20.4 20.3 20.2 20.1 20.0 20.9 21.0 21.0 21.1 21.2 21.2 21.2 21.3 21.3 21.3 21.2 21.2 21.1 21.1 21.0 20.9 20.8 20.8 20.7 20.7 20.6 20.4 20.3 20.2 20.1 20.1 20.8 20.8 20.9 21.0 21.0 21.0 21.0 21.1 21.1 21.1 21.1 21.1 21.0 21.0 20.9 20.8 20.8 20.7 20.7 20.6 20.5 20.4 20.3 20.2 20.1 20.1 20.7 20.7 20.8 20.9 20.9 20.9 20.8 20.9 21.0 21.0 20.9 20.9 20.9 20.8 20.8 20.7 20.7 20.7 20.6 20.5 20.5 20.4 20.3 20.2 20.1 20.0 20.6 20.6 20.7 20.7 20.7 20.7 20.6 20.7 20.8 20.8 20.8 20.7 20.7 20.7 20.7 20.6 20.6 20.6 20.6 20.5 20.4 20.3 20.2 20.1 20.1 20.0 20.5 20.5 20.6 20.6 20.6 20.5 20.5 20.5 20.6 20.7 20.6 20.6 20.6 20.5 20.5 20.5 20.5 20.5 20.5 20.5 20.4 20.3 20.2 20.1 20.1 20.0 20.4 2