<?xml version="1.0"?>
<VTKFile type="PolyData" version="1.0" byte_order="LittleEndian" header_type="UInt64">
<PolyData>
<Piece NumberOfPoints="50" NumberOfVerts="0" NumberOfLines="0" NumberOfPolys="0">
    <Points>
        <DataArray type="Float32" NumberOfComponents="3" format="ascii">
        11.4009 15.9691 8.1517 12.9720 15.9388 2.2391 12.2272 18.7807 4.6607 12.2343 17.8780 4.8835 14.6072 16.1611 3.1208 12.4669 19.3697 5.9848 10.5417 18.2527 4.7872 13.4732 16.3941 2.2201 11.8095 20.3067 5.5797 8.2839 16.7443 6.5039 10.0301 16.4746 3.4555 10.5203 15.1248 3.0863 12.7278 20.8822 5.6383 13.7138 16.6539 3.5449 11.9599 15.2169 2.5517 14.0200 16.3532 7.1590 10.3243 16.0377 6.8157 11.3653 15.2635 3.0038 11.3358 15.5922 3.2587 9.1814 17.1830 6.9867 14.3118 20.1222 8.0377 12.4613 15.4756 3.4002 13.1767 17.3265 2.6047 7.0318 16.2678 6.5496 10.3834 15.3218 6.8058 11.8561 15.6202 4.0859 11.7971 15.1969 3.4662 8.3836 15.8734 5.3557 11.9187 15.3758 4.0280 10.0756 15.6951 5.8373 6.7482 16.7078 6.6274 13.3702 16.0285 7.8384 11.0052 15.2612 3.0320 9.9194 16.0910 5.0084 10.6890 17.5436 6.9716 10.9221 16.1126 5.8420 9.7782 15.9605 5.3709 8.9166 16.6546 6.2175 10.1565 15.7989 4.4393 8.2290 17.0742 6.5885 9.8381 15.9073 4.8716 7.8741 16.5994 7.0047 9.2743 16.2970 5.4575 10.4627 15.4105 3.9842 7.1341 18.0317 8.2471 9.1203 15.3402 5.5366 5.1129 16.7677 8.0454 11.5554 20.6164 7.4861 10.7801 15.4469 6.5734 10.7052 15.3086 6.4361 
        </DataArray>
    </Points>
    <PointData>
        <DataArray type="Float32" Name="tag" format="ascii">
            49507.0000 80803.0000 208275.0000 214695.0000 218135.0000 218459.0000 234459.0000 244007.0000 255683.0000 263399.0000 263843.0000 304119.0000 360823.0000 370755.0000 382255.0000 385643.0000 392263.0000 397251.0000 399055.0000 405755.0000 418991.0000 420351.0000 420435.0000 421307.0000 427683.0000 431951.0000 439727.0000 446039.0000 446119.0000 451067.0000 461847.0000 504027.0000 510855.0000 514907.0000 514919.0000 516667.0000 518967.0000 519215.0000 520407.0000 525043.0000 530155.0000 530387.0000 535367.0000 545359.0000 550355.0000 553327.0000 555967.0000 562195.0000 688003.0000 691019.0000 
         </DataArray>
    </PointData>
</Piece>
</PolyData>
</VTKFile>