<?xml version="1.0"?>
<VTKFile type="ImageData" version="1.0" byte_order="LittleEndian" header_type="UInt64">
<ImageData WholeExtent="25 50 25 50 0 15"
 Origin="15.0000 15.0000 0.0000" Spacing="0.6000 0.6000 0.6000">
<Piece Extent="25 50 25 50 0 15">
<PointData>
<DataArray Name="TEMPERATURE" NumberOfComponents="1" type="Float32" format="ascii">
22.0 23.1 23.6 24.5 25.7 26.7 26.5 25.5 24.7 24.0 23.5 23.0 22.6 22.2 21.9 21.7 21.5 21.3 21.1 21.0 20.9 20.7 20.5 20.3 20.1 20.1 22.4 22.7 23.2 23.8 24.6 25.4 25.4 24.7 23.9 23.4 23.0 22.6 22.3 22.0 21.7 21.5 21.3 21.1 21.0 20.9 20.7 20.6 20.4 20.2 20.1 20.1 22.1 22.4 22.8 23.2 23.8 24.4 24.5 24.0 23.3 23.0 22.6 22.3 22.1 21.8 21.6 21.4 21.2 21.0 20.9 20.8 20.7 20.5 20.4 20.2 20.1 20.0 21.8 22.1 22.4 22.8 23.3 23.7 23.7 23.3 22.9 22.6 22.3 22.1 21.8 21.6 21.4 21.3 21.1 21.0 20.9 20.7 20.6 20.5 20.4 20.2 20.1 20.0 21.6 21.8 22.1 22.4 22.8 23.1 23.1 22.8 22.5 22.2 22.0 21.8 21.6 21.5 21.3 21.2 21.0 20.9 20.8 20.7 20.6 20.5 20.4 20.2 20.1 20.0 21.4 21.6 21.8 22.1 22.4 22.7 22.6 22.4 22.1 21.9 21.7 21.6 21.5 21.3 21.2 21.1 20.9 20.8 20.7 20.7 20.6 20.5 20.4 20.2 20.1 20.0 21.2 21.4 21.6 21.8 22.0 22.2 22.2 22.1 21.9 21.7 21.5 21.4 21.3 21.2 21.1 20.9 20.8 20.8 20.7 20.6 20.5 20.5 20.4 20.2 20.1 20.0 21.1 21.2 21.4 21.6 21.8 21.9 21.9 21.8 21.6 21.5 21.3 21.2 21.1 21.0 20.9 20.9 20.8 20.7 20.6 20.6 20.5 20.4 20.3 20.2 20.1 20.0 20.9 21.0 21.2 21.3 21.5 21.6 21.6 21.5 21.4 21.3 21.2 21.1 21.0 20.9 20.8 20.8 20.7 20.6 20.6 20.5 20.5 20.4 20.3 20.2 20.1 20.0 20.8 20.9 21.0 21.2 21.3 21.3 21.3 21.3 21.2 21.1 21.0 20.9 20.9 20.8 20.7 20.7 20.6 20.6 20.5 20.5 20.4 20.4 20.3 20.2 20.1 20.0 20.7 20.8 20.9 21.0 21.1 21.1 21.1 21.1 21.1 21.0 20.9 20.8 20.8 20.7 20.7 20.6 20.6 20.5 20.5 20.4 20.4 20.3 20.3 20.2 20.1 20.0 20.6 20.7 20.8 20.9 20.9 21.0 20.9 21.0 21.0 20.9 20.8 20.7 20.7 20.6 20.6 20.5 20.5 20.5 20.4 20.4 20.3 20.3 20.3 20.2 20.1 20.0 20.5 20.6 20.7 20.8 20.8 20.8 20.8 20.8 20.8 20.8 20.7 20.6 20.6 20.5 20.5 20.5 20.4 20.4 20.4 20.3 20.3 20.3 20.2 20.2 20.1 20.0 20.5 20.5 20.6 20.7 20.7 20.7 20.7 20.7 20.7 20.7 20.6 20.5 20.5 20.5 20.5 20.4 20.4 20.4 20.3 20.3 20.3 20.2 20.2 20.2 20.1 20.0 20.4 20.4 20.5 20.6 20.6 20.6 20.6 20.6 20.6 20.6 20.5 20.5 20.4 20.4 20.4 20.4 20.4 20.3 20.3 20.3 20.2 20.2 20.2 20.2 20.1 20.1 20.3 20.4 20.4 20.5 20.5 20.5 20.5 20.5 20.5 20.5 20.5 20.4 20.4 20.4 20.3 20.3 20.3 20.3 20.3 20.2 20.2 20.2 20.2 20.2 20.1 20.1 20.3 20.3 20.4 20.4 20.5 20.4 20.4 20.4 20.5 20.5 20.4 20.4 20.3 20.3 20.3 20.3 20.3 20.3 20.2 20.2 20.2 20.2 20.2 20.1 20.1 20.1 20.3 20.3 20.4 20.4 20.4 20.4 20.4 20.4 20.4 20.4 20.4 20.3 20.3 20.3 20.3 20.3 20.2 20.2 20.2 20.2 20.2 20.2 20.1 20.1 20.1 20.1 20.2 20.3 20.3 20.3 20.3 20.3 20.3 20.3 20.4 20.4 20.3 20.3 20.3 20.2 20.2 20.2 20.2 20.2 20.2 20.2 20.2 20.1 20.1 20.1 20.1 20.1 20.2 20.2 20.3 20.3 20.3 20.3 20.3 20.3 20.3 20.3 20.3 20.3 20.2 20.2 20.2 20.2 20.2 20.2 20.2 20.2 20.1 20.1 20.1 20.1 20.1 20.1 20.2 20.2 20.2 20.3 20.2 20.2 20.2 20.2 20.3 20.3 20.3 20.2 20.2 20.2 20.2 20.2 20.2 20.2 20.1 20.1 20.1 20.1 20.1 20.1 20.1 20.1 20.2 20.2 20.2 20.2 20.2 20.2 20.2 20.2 20.2 20.2 20.2 20.2 20.2 20.2 20.1 20.1 20.1 20.1 20.1 20.1 20.1 20.1 20.1 20.1 20.1 20.1 20.1 20.2 20.2 20.2 20.2 20.2 20.1 20.2 20.2 20.2 20.2 20.2 20.2 20.1 20.1 20.1 20.1 20.1 20.1 20.1 20.1 20.1 20.1 20.1 20.1 20.0 20.1 20.1 20.1 20.1 20.1 20.1 20.1 20.1 20.1 20.2 20.2 20.1 20.1 20.1 20.1 20.1 20.1 20.1 20.1 20.1 20.1 20.1 20.1 20.1 20.1 20.0 20.1 20.1 20.1 20.1 20.1 20.1 20.1 20.1 20.1 20.1 20.1 20.1 20.1 20.1 20.1 20.1 20.1 20.1 20.1 20.1 20.1 20.1 20.1 20.1 20.0 20.0 20.0 20.0 20.0 20.0 20.0 20.0 20.0 20.0 20.0 20.0 20.0 20.0 20.0 20.0 20.0 20.0 20.0 20.0 20.0 20.0 20.0 20.0 20.0 20.0 20.0 20.0 22.2 23.5 24.2 25.3 26.5 27.5 27.5 26.3 25.2 24.5 23.9 23.3 22.8 22.4 22.0 21.7 21.5 21.3 21.1 21.0 20.8 20.7 20.5 20.3 20.1 20.1 22.5 23.0 23.6 24.3 25.2 25.9 25.8 25.1 24.4 23.8 23.3 22.8 22.4 22.1 21.8 21.5 21.3 21.1 21.0 20.8 20.7 20.6 20.4 20.2 20.1 20.0 22.2 22.6 23.1 23.6 24.3 24.8 24.9 24.4 23.7 23.2 22.8 22.5 22.2 21.9 21.6 21.4 21.2 21.0 20.9 20.8 20.7 20.5 20.4 20.2 20.1 20.0 21.9 22.2 22.6 23.1 23.6 23.9 24.0 23.6 23.1 22.8 22.4 22.2 21.9 21.7 21.5 21.3 21.1 21.0 20.8 20.7 20.6 20.5 20.4 20.2 20.1 20.0 21.7 21.9 22.2 22.6 23.0 23.3 23.4 23.0 22.7 22.4 22.1 21.9 21.7 21.5 21.3 21.2 21.0 20.9 20.8 20.7 20.6 20.5 20.3 20.2 20.1 20.0 21.5 21.6 21.9 22.2 22.6 22.8 22.8 22.6 22.3 22.0 21.8 21.6 21.5 21.3 21.2 21.0 20.9 20.8 20.7 20.6 20.5 20.5 20.3 20.2 20.1 20.0 21.3 21.4 21.6 21.9 22.1 22.3 22.3 22.2 21.9 21.7 21.6 21.4 21.3 21.2 21.0 20.9 20.8 20.7 20.6 20.6 20.5 20.4 20.3 20.2 20.1 20.0 21.1 21.2 21.4 21.6 21.8 21.9 21.9 21.8 21.7 21.5 21.3 21.2 21.1 21.0 20.9 20.8 20.7 20.7 20.6 20.5 20.5 20.4 20.3 20.2 20.1 20.0 20.9 21.0 21.2 21.4 21.5 21.6 21.6 21.6 21.4 21.3 21.2 21.1 21.0 20.9 20.8 20.7 20.7 20.6 20.5 20.5 20.4 20.4 20.3 20.2 20.1 20.0 20.8 20.9 21.0 21.2 21.3 21.3 21.3 21.3 21.2 21.1 21.0 20.9 20.8 20.8 20.7 20.6 20.6 20.5 20.5 20.4 20.4 20.3 20.3 20.2 20.1 20.0 20.7 20.7 20.9 21.0 21.1 21.1 21.1 21.1 21.1 21.0 20.9 20.8 20.7 20.7 20.6 20.6 20.5 20.5 20.4 20.4 20.3 20.3 20.3 20.2 20.1 20.0 20.6 20.6 20.7 20.9 20.9 20.9 20.9 20.9 20.9 20.9 20.8 20.7 20.6 20.6 20.5 20.5 20.5 20.4 20.4 20.3 20.3 20.3 20.2 20.2 20.1 20.0 20.5 20.5 20.6 20.7 20.8 20.8 20.8 20.8 20.8 20.8 20.7 20.6 20.5 20.5 20.5 20.4 20.4 20.4 20.3 20.3 20.3 20.2 20.2 20.2 20.1 20.0 20.4 20.5 20.5 20.6 20.7 20.7 20.7 20.7 20.7 20.7 20.6 20.5 20.5 20.4 20.4 20.4 20.4 20.3 20.3 20.3 20.2 20.2 20.2 20.2 20.1 20.0 20.4 20.4 20.5 20.5 20.6 20.6 20.6 20.6 20.6 20.6 20.5 20.5 20.4 20.4 20.4 20.3 20.3 20.3 20.3 20.2 20.2 20.2 20.2 20.1 20.1 20.0 20.3 20.3 20.4 20.5 20.5 20.5 20.5 20.5 20.5 20.5 20.5 20.4 20.4 20.3 20.3 20.3 20.3 20.3 20.2 20.2 20.2 20.2 20.2 20.1 20.1 20.0 20.3 20.3 20.3 20.4 20.4 20.4 20.4 20.4 20.4 20.4 20.4 20.3 20.3 20.3 20.3 20.3 20.2 20.2 20.2 20.2 20.2 20.2 20.1 20.1 20.1 20.0 20.2 20.3 20.3 20.4 20.4 20.3 20.3 20.3 20.4 20.4 20.4 20.3 20.3 20.2 20.2 20.2 20.2 20.2 20.2 20.2 20.2 20.1 20.1 20.1 20.1 20.0 20.2 20.2 20.3 20.3 20.3 20.3 20.3 20.3 20.3 20.3 20.3 20.3 20.2 20.2 20.2 20.2 20.2 20.2 20.2 20.1 20.1 20.1 20.1 20.1 20.1 20.0 20.2 20.2 20.2 20.3 20.3 20.2 20.2 20.2 20.3 20.3 20.3 20.2 20.2 20.2 20.2 20.2 20.2 20.2 20.1 20.1 20.1 20.1 20.1 20.1 20.1 20.0 20.2 20.2 20.2 20.2 20.2 20.2 20.2 20.2 20.2 20.2 20.2 20.2 20.2 20.2 20.1 20.1 20.1 20.1 20.1 20.1 20.1 20.1 20.1 20.1 20.1 20.0 20.1 20.2 20.2 20.2 20.2 20.2 20.2 20.2 20.2 20.2 20.2 20.2 20.2 20.1 20.1 20.1 20.1 20.1 20.1 20.1 20.1 20.1 20.1 20.1 20.1 20.0 20.1 20.1 20.2 20.2 20.2 20.1 20.1 20.1 20.2 20.2 20.2 20.2 20.1 20.1 20.1 20.1 20.1 20.1 20.1 20.1 20.1 20.1 20.1 20.1 20.1 20.0 20.1 20.1 20.1 20.1 20.1 20.1 20.1 20.1 20.1 20.1 20.1 20.1 20.1 20.1 20.1 20.1 20.1 20.1 20.1 20.1 20.1 20.1 20.1 20.1 20.0 20.0 20.0 20.1 20.1 20.1 20.1 20.1 20.0 20.1 20.1 20.1 20.1 20.1 20.1 20.1 20.1 20.1 20.1 20.1 20.1 20.1 20.1 20.1 20.0 20.0 20.0 20.0 20.0 20.0 20.0 20.0 20.0 20.0 20.0 20.0 20.0 20.0 20.0 20.0 20.0 20.0 20.0 20.0 20.0 20.0 20.0 20.0 20.0 20.0 20.0 20.0 20.0 20.0 22.5 24.5 25.8 27.5 29.2 30.0 30.3 29.0 26.8 25.4 24.5 23.8 23.1 22.6 22.2 21.8 21.5 21.3 21.1 21.0 20.8 20.6 20.4 20.2 20.1 20.1 22.8 23.4 24.3 25.3 26.4 27.0 26.9 26.2 25.3 24.4 23.8 23.2 22.7 22.3 21.9 21.6 21.3 21.1 20.9 20.8 20.7 20.5 20.4 20.2 20.1 20.0 22.5 22.9 23.5 24.4 25.2 25.7 25.6 25.1 24.4 23.7 23.2 22.7 22.3 22.0 21.7 21.4 21.2 21.0 20.8 20.7 20.6 20.5 20.3 20.2 20.1 20.0 22.1 22.5 22.9 23.6 24.3 24.6 24.6 24.2 23.6 23.1 22.7 22.4 22.0 21.8 21.5 21.3 21.1 20.9 20.8 20.7 20.6 20.4 20.3 20.2 20.1 20.0 21.8 22.1 22.5 23.0 23.4 23.8 23.8 23.5 23.0 22.6 22.3 22.0 21.8 21.5 21.3 21.1 21.0 20.8 20.7 20.6 20.5 20.4 20.3 20.2 20.1 20.0 21.5 21.8 22.1 22.5 22.9 23.1 23.1 22.9 22.5 22.2 21.9 21.7 21.5 21.3 21.2 21.0 20.9 20.8 20.6 20.6 20.5 20.4 20.3 20.2 20.1 20.0 21.3 21.6 21.9 22.2 22.4 22.5 22.5 22.3 22.1 21.8 21.6 21.4 21.3 21.1 21.0 20.9 20.8 20.7 20.6 20.5 20.4 20.4 20.3 20.2 20.1 20.0 21.2 21.4 21.7 21.9 22.0 22.1 22.1 21.9 21.7 21.5 21.4 21.2 21.1 21.0 20.9 20.8 20.7 20.6 20.5 20.5 20.4 20.3 20.3 20.2 20.1 20.0 21.1 21.4 21.6 21.7 21.6 21.7 21.7 21.6 21.5 21.3 21.1 21.0 20.9 20.9 20.8 20.7 20.6 20.5 20.5 20.4 20.4 20.3 20.3 20.2 20.1 20.0 21.0 21.2 21.5 21.5 21.4 21.4 21.4 21.3 21.2 21.1 21.0 20.9 20.8 20.7 20.7 20.6 20.5 20.5 20.4 20.4 20.3 20.3 20.2 20.2 20.1 20.0 20.8 21.0 21.2 21.2 21.1 21.1 21.1 21.1 21.0 20.9 20.8 20.7 20.7 20.6 20.6 20.5 20.5 20.4 20.4 20.3 20.3 20.3 20.2 20.1 20.1 20.0 20.7 20.8 21.0 21.1 20.9 20.9 20.9 20.9 20.9 20.8 20.7 20.6 20.6 20.5 20.5 20.4 20.4 20.4 20.3 20.3 20.3 20.2 20.2 20.1 20.1 20.0 20.6 20.7 20.8 20.9 20.8 20.8 20.8 20.8 20.7 20.7 20.6 20.5 20.5 20.5 20.4 20.4 20.3 20.3 20.3 20.2 20.2 20.2 20.2 20.1 20.1 20.0 20.5 20.6 20.6 20.7 20.6 20.6 20.6 20.6 20.6 20.6 20.5 20.5 20.4 20.4 20.4 20.3 20.3 20.3 20.2 20.2 20.2 20.2 20.2 20.1 20.1 20.0 20.4 20.4 20.5 20.5 20.5 20.5 20.5 20.5 20.5 20.5 20.5 20.4 20.4 20.3 20.3 20.3 20.3 20.2 20.2 20.2 20.2 20.2 20.1 20.1 20.1 20.0 20.3 20.3 20.3 20.4 20.4 20.4 20.4 20.4 20.5 20.4 20.4 20.3 20.3 20.3 20.3 20.2 20.2 20.2 20.2 20.2 20.2 20.1 20.1 20.1 20.1 20.0 20.2 20.2 20.3 20.3 20.4 20.4 20.3 20.4 20.4 20.4 20.3 20.3 20.3 20.2 20.2 20.2 20.2 20.2 20.2 20.1 20.1 20.1 20.1 20.1 20.1 20.0 20.2 20.2 20.2 20.3 20.3 20.3 20.3 20.3 20.3 20.3 20.3 20.3 20.2 20.2 20.2 20.2 20.2 20.2 20.1 20.1 20.1 20.1 20.1 20.1 20.1 20.0 20.1 20.2 20.2 20.2 20.3 20.3 20.2 20.2 20.3 20.3 20.3 20.2 20.2 20.2 20.2 20.2 20.1 20.1 20.1 20.1 20.1 20.1 20.1 20.1 20.1 20.0 20.1 20.1 20.2 20.2 20.2 20.2 20.2 20.2 20.2 20.2 20.2 20.2 20.2 20.1 20.1 20.1 20.1 20.1 20.1 20.1 20.1 20.1 20.1 20.1 20.0 20.0 20.1 20.1 20.2 20.2 20.2 20.2 20.2 20.2 20.2 20.2 20.2 20.2 20.1 20.1 20.1 20.1 20.1 20.1 20.1 20.1 20.1 20.1 20.1 20.1 20.0 20.0 20.1 20.1 20.1 20.2 20.2 20.1 20.1 20.1 20.2 20.2 20.2 20.1 20.1 20.1 20.1 20.1 20.1 20.1 20.1 20.1 20.1 20.1 20.1 20.1 20.0 20.0 20.1 20.1 20.1 20.1 20.1 20.1 20.1 20.1 20.1 20.1 20.1 20.1 20.1 20.1 20.1 20.1 20.1 20.1 20.1 20.1 20.1 20.1 20.1 20.0 20.0 20.0 20.1 20.1 20.1 20.1 20.1 20.1 20.1 20.1 20.1 20.1 20.1 20.1 20.1 20.1 20.1 20.1 20.1 20.1 20.1 20.1 20.1 20.0 20.0 20.0 20.0 20.0 20.0 20.0 20.0 20.0 20.0 20.0 20.0 20.0 20.1 20.1 20.1 20.1 20.1 20.0 20.0 20.0 20.0 20.0 20.0 20.0 20.0 20.0 20.0 20.0 20.0 20.0 20.0 20.0 20.0 20.0 20.0 20.0 20.0 20.0 20.0 20.0 20.0 20.0 20.0 20.0 20.0 20.0 20.0 20.0 20.0 20.0 20.0 20.0 20.0 20.0 20.0 20.0 22.6 24.9 27.7 30.7 32.0 32.6 34.1 32.4 28.3 26.1 24.9 24.1 23.4 22.8 22.3 21.9 21.6 21.4 21.1 21.0 20.8 20.6 20.4 20.2 20.1 20.0 23.0 23.7 24.6 26.0 27.2 27.7 27.8 27.4 26.2 24.9 24.1 23.4 22.9 22.4 22.0 21.7 21.4 21.1 21.0 20.8 20.7 20.5 20.4 20.2 20.1 20.0 22.6 23.1 23.8 24.8 25.7 26.2 26.1 25.7 24.8 24.0 23.4 22.9 22.5 22.1 21.8 21.5 21.2 21.0 20.9 20.7 20.6 20.5 20.3 20.2 20.1 20.0 22.2 22.6 23.2 24.0 24.7 25.0 25.0 24.6 23.9 23.3 22.8 22.5 22.1 21.8 21.6 21.3 21.1 20.9 20.8 20.7 20.6 20.4 20.3 20.2 20.1 20.0 21.9 22.3 22.8 23.3 23.7 24.0 24.1 23.7 23.2 22.7 22.4 22.1 21.8 21.6 21.4 21.2 21.0 20.8 20.7 20.6 20.5 20.4 20.3 20.2 20.1 20.0 21.6 22.0 22.5 22.9 23.1 23.3 23.3 23.0 22.6 22.3 22.0 21.8 21.5 21.4 21.2 21.0 20.9 20.8 20.6 20.6 20.5 20.4 20.3 20.2 20.1 20.0 21.5 21.9 22.4 22.6 22.6 22.7 22.7 22.5 22.2 21.9 21.7 21.5 21.3 21.2 21.0 20.9 20.8 20.7 20.6 20.5 20.4 20.4 20.3 20.2 20.1 20.0 21.4 22.0 22.4 22.3 22.1 22.1 22.1 22.0 21.8 21.6 21.4 21.2 21.1 21.0 20.9 20.8 20.7 20.6 20.5 20.4 20.4 20.3 20.3 20.2 20.1 20.0 21.5 22.1 22.4 22.2 21.8 21.8 21.8 21.7 21.5 21.3 21.2 21.0 21.0 20.9 20.8 20.7 20.6 20.5 20.4 20.4 20.3 20.3 20.2 20.2 20.1 20.0 21.3 21.6 21.9 21.8 21.5 21.4 21.4 21.4 21.3 21.1 21.0 20.9 20.8 20.7 20.7 20.6 20.5 20.5 20.4 20.3 20.3 20.3 20.2 20.1 20.1 20.0 21.0 20.9 21.1 21.5 21.2 21.2 21.2 21.1 21.1 21.0 20.8 20.7 20.7 20.6 20.6 20.5 20.4 20.4 20.3 20.3 20.3 20.2 20.2 20.1 20.1 20.0 20.8 20.8 21.0 21.2 21.0 20.9 20.9 20.9 20.9 20.8 20.7 20.6 20.6 20.5 20.5 20.4 20.4 20.3 20.3 20.3 20.2 20.2 20.2 20.1 20.1 20.0 20.7 20.6 20.8 21.0 20.8 20.8 20.8 20.8 20.8 20.7 20.6 20.5 20.5 20.4 20.4 20.4 20.3 20.3 20.3 20.2 20.2 20.2 20.2 20.1 20.1 20.0 20.5 20.5 20.6 20.7 20.7 20.6 20.6 20.6 20.6 20.6 20.5 20.5 20.4 20.4 20.4 20.3 20.3 20.3 20.2 20.2 20.2 20.2 20.1 20.1 20.1 20.0 20.4 20.4 20.4 20.5 20.5 20.5 20.5 20.5 20.5 20.5 20.4 20.4 20.3 20.3 20.3 20.3 20.3 20.2 20.2 20.2 20.2 20.1 20.1 20.1 20.1 20.0 20.2 20.2 20.2 20.4 20.4 20.4 20.4 20.4 20.4 20.4 20.4 20.3 20.3 20.3 20.3 20.2 20.2 20.2 20.2 20.2 20.1 20.1 20.1 20.1 20.1 20.0 20.1 20.1 20.2 20.3 20.4 20.4 20.3 20.4 20.4 20.4 20.3 20.3 20.2 20.2 20.2 20.2 20.2 20.2 20.2 20.1 20.1 20.1 20.1 20.1 20.1 20.0 20.1 20.1 20.2 20.3 20.3 20.3 20.3 20.3 20.3 20.3 20.3 20.2 20.2 20.2 20.2 20.2 20.2 20.1 20.1 20.1 20.1 20.1 20.1 20.1 20.0 20.0 20.1 20.1 20.2 20.2 20.3 20.2 20.2 20.2 20.3 20.3 20.2 20.2 20.2 20.2 20.2 20.1 20.1 20.1 20.1 20.1 20.1 20.1 20.1 20.1 20.0 20.0 20.1 20.1 20.2 20.2 20.2 20.2 20.2 20.2 20.2 20.2 20.2 20.2 20.2 20.1 20.1 20.1 20.1 20.1 20.1 20.1 20.1 20.1 20.1 20.1 20.0 20.0 20.1 20.1 20.1 20.2 20.2 20.2 20.2 20.2 20.2 20.2 20.2 20.2 20.1 20.1 20.1 20.1 20.1 20.1 20.1 20.1 20.1 20.1 20.1 20.0 20.0 20.0 20.1 20.1 20.1 20.1 20.1 20.1 20.1 20.1 20.2 20.2 20.2 20.1 20.1 20.1 20.1 20.1 20.1 20.1 20.1 20.1 20.1 20.1 20.0 20.0 20.0 20.0 20.1 20.1 20.1 20.1 20.1 20.1 20.1 20.1 20.1 20.1 20.1 20.1 20.1 20.1 20.1 20.1 20.1 20.1 20.1 20.1 20.1 20.0 20.0 20.0 20.0 20.0 20.1 20.1 20.1 20.1 20.1 20.1 20.1 20.1 20.1 20.1 20.1 20.1 20.1 20.1 20.1 20.1 20.1 20.1 20.1 20.1 20.0 20.0 20.0 20.0 20.0 20.0 20.0 20.0 20.0 20.0 20.0 20.0 20.0 20.0 20.0 20.1 20.1 20.1 20.0 20.0 20.0 20.0 20.0 20.0 20.0 20.0 20.0 20.0 20.0 20.0 20.0 20.0 20.0 20.0 20.0 20.0 20.0 20.0 20.0 20.0 20.0 20.0 20.0 20.0 20.0 20.0 20.0 20.0 20.0 20.0 20.0 20.0 20.0 20.0 20.0 20.0 20.0 20.0 23.2 26.2 29.9 34.4 37.4 37.5 35.8 32.3 28.3 26.1 24.9 24.1 23.4 22.9 22.4 22.0 21.7 21.4 21.2 21.0 20.9 20.7 20.5 20.3 20.1 20.1 23.0 23.7 24.8 26.7 28.3 28.7 28.5 27.8 26.3 24.9 24.1 23.4 22.9 22.4 22.0 21.7 21.4 21.2 21.0 20.9 20.7 20.6 20.4 20.3 20.1 20.0 22.5 23.1 23.9 24.8 25.6 26.1 26.2 25.7 24.7 24.0 23.4 22.9 22.5 22.1 21.8 21.5 21.3 21.1 20.9 20.8 20.7 20.5 20.4 20.2 20.1 20.0 22.2 22.7 23.3 24.0 24.6 25.0 25.2 24.7 23.9 23.3 22.8 22.5 22.2 21.9 21.6 21.4 21.2 21.0 20.8 20.7 20.6 20.5 20.4 20.2 20.1 20.0 21.9 22.4 22.9 23.5 23.8 23.9 24.1 23.8 23.2 22.7 22.4 22.1 21.9 21.6 21.4 21.2 21.1 20.9 20.8 20.7 20.6 20.5 20.3 20.2 20.1 20.0 21.8 22.2 22.8 23.0 23.1 23.2 23.3 23.1 22.6 22.3 22.0 21.8 21.6 21.4 21.2 21.1 20.9 20.8 20.7 20.6 20.5 20.4 20.3 20.2 20.1 20.0 21.7 22.2 22.7 22.8 22.6 22.7 22.7 22.5 22.2 21.9 21.7 21.5 21.4 21.2 21.1 21.0 20.8 20.7 20.6 20.5 20.5 20.4 20.3 20.2 20.1 20.0 21.7 22.3 22.8 22.6 22.2 22.2 22.2 22.1 21.9 21.6 21.4 21.3 21.2 21.1 20.9 20.8 20.7 20.6 20.6 20.5 20.4 20.4 20.3 20.2 20.1 20.0 21.9 22.4 22.8 22.4 21.8 21.8 21.8 21.7 21.6 21.4 21.2 21.1 21.0 20.9 20.8 20.7 20.6 20.6 20.5 20.4 20.4 20.3 20.3 20.2 20.1 20.0 21.5 21.7 21.9 21.9 21.5 21.5 21.5 21.4 21.3 21.2 21.0 20.9 20.9 20.8 20.7 20.6 20.6 20.5 20.4 20.4 20.3 20.3 20.2 20.2 20.1 20.0 20.9 20.8 21.1 21.5 21.3 21.2 21.2 21.2 21.1 21.0 20.9 20.8 20.7 20.7 20.6 20.6 20.5 20.4 20.4 20.3 20.3 20.3 20.2 20.2 20.1 20.0 20.8 20.7 20.9 21.2 21.1 21.0 21.0 21.0 21.0 20.9 20.8 20.7 20.6 20.6 20.5 20.5 20.4 20.4 20.3 20.3 20.3 20.2 20.2 20.2 20.1 20.0 20.6 20.5 20.7 21.0 20.9 20.8 20.8 20.8 20.8 20.7 20.7 20.6 20.5 20.5 20.5 20.4 20.4 20.3 20.3 20.3 20.2 20.2 20.2 20.1 20.1 20.0 20.5 20.4 20.6 20.8 20.7 20.7 20.7 20.7 20.7 20.6 20.6 20.5 20.5 20.4 20.4 20.4 20.3 20.3 20.3 20.2 20.2 20.2 20.2 20.1 20.1 20.0 20.4 20.3 20.4 20.6 20.6 20.6 20.6 20.6 20.6 20.6 20.5 20.4 20.4 20.4 20.3 20.3 20.3 20.3 20.2 20.2 20.2 20.2 20.1 20.1 20.1 20.0 20.2 20.2 20.2 20.4 20.5 20.5 20.5 20.5 20.5 20.5 20.4 20.4 20.3 20.3 20.3 20.3 20.3 20.2 20.2 20.2 20.2 20.1 20.1 20.1 20.1 20.0 20.1 20.1 20.2 20.3 20.4 20.4 20.4 20.4 20.4 20.4 20.4 20.3 20.3 20.3 20.2 20.2 20.2 20.2 20.2 20.2 20.1 20.1 20.1 20.1 20.1 20.0 20.1 20.1 20.2 20.3 20.3 20.3 20.3 20.3 20.4 20.3 20.3 20.3 20.2 20.2 20.2 20.2 20.2 20.2 20.2 20.1 20.1 20.1 20.1 20.1 20.1 20.0 20.1 20.1 20.2 20.3 20.3 20.3 20.3 20.3 20.3 20.3 20.3 20.2 20.2 20.2 20.2 20.2 20.2 20.2 20.1 20.1 20.1 20.1 20.1 20.1 20.1 20.0 20.1 20.1 20.2 20.2 20.2 20.2 20.2 20.2 20.3 20.3 20.2 20.2 20.2 20.2 20.1 20.1 20.1 20.1 20.1 20.1 20.1 20.1 20.1 20.1 20.0 20.0 20.1 20.1 20.2 20.2 20.2 20.2 20.2 20.2 20.2 20.2 20.2 20.2 20.1 20.1 20.1 20.1 20.1 20.1 20.1 20.1 20.1 20.1 20.1 20.1 20.0 20.0 20.1 20.1 20.1 20.2 20.2 20.1 20.1 20.2 20.2 20.2 20.2 20.2 20.1 20.1 20.1 20.1 20.1 20.1 20.1 20.1 20.1 20.1 20.1 20.1 20.0 20.0 20.1 20.1 20.1 20.1 20.1 20.1 20.1 20.1 20.1 20.2 20.2 20.1 20.1 20.1 20.1 20.1 20.1 20.1 20.1 20.1 20.1 20.1 20.0 20.0 20.0 20.0 20.1 20.1 20.1 20.1 20.1 20.1 20.1 20.1 20.1 20.1 20.1 20.1 20.1 20.1 20.1 20.1 20.1 20.1 20.1 20.1 20.1 20.0 20.0 20.0 20.0 20.0 20.0 20.0 20.1 20.1 20.1 20.0 20.0 20.0 20.1 20.1 20.1 20.1 20.1 20.0 20.0 20.0 20.0 20.0 20.0 20.0 20.0 20.0 20.0 20.0 20.0 20.0 20.0 20.0 20.0 20.0 20.0 20.0 20.0 20.0 20.0 20.0 20.0 20.0 20.0 20.0 20.0 20.0 20.0 20.0 20.0 20.0 20.0 20.0 20.0 20.0 20.0 20.0 26.9 33.3 36.1 39.0 45.4 46.1 36.8 30.2 27.2 25.5 24.6 23.8 23.2 22.8 22.3 22.0 21.7 21.5 21.3 21.1 21.0 20.8 20.6 20.3 20.1 20.1 22.9 23.8 25.4 27.5 29.0 29.2 28.4 27.1 25.7 24.5 23.8 23.2 22.7 22.3 22.0 21.7 21.4 21.2 21.1 20.9 20.8 20.7 20.5 20.3 20.1 20.1 22.4 23.0 23.8 24.7 25.2 25.6 25.9 25.4 24.4 23.7 23.2 22.8 22.4 22.1 21.8 21.5 21.3 21.1 21.0 20.8 20.7 20.6 20.4 20.3 20.1 20.1 22.1 22.5 23.1 23.7 24.2 24.7 24.9 24.5 23.6 23.1 22.7 22.4 22.1 21.8 21.6 21.4 21.2 21.0 20.9 20.8 20.7 20.6 20.4 20.3 20.1 20.1 21.9 22.3 22.8 23.3 23.6 23.8 23.9 23.6 23.0 22.6 22.3 22.1 21.8 21.6 21.4 21.2 21.1 20.9 20.8 20.7 20.6 20.5 20.4 20.3 20.1 20.1 21.7 22.1 22.6 22.9 22.9 23.0 23.1 22.9 22.5 22.2 21.9 21.8 21.6 21.4 21.3 21.1 21.0 20.9 20.8 20.7 20.6 20.5 20.4 20.3 20.1 20.1 21.7 22.0 22.5 22.7 22.5 22.5 22.6 22.4 22.1 21.9 21.7 21.5 21.4 21.2 21.1 21.0 20.9 20.8 20.7 20.6 20.5 20.5 20.4 20.2 20.1 20.1 21.7 22.0 22.5 22.4 22.1 22.1 22.1 22.0 21.8 21.6 21.4 21.3 21.2 21.1 21.0 20.9 20.8 20.7 20.6 20.5 20.5 20.4 20.3 20.2 20.1 20.1 21.7 22.0 22.3 22.1 21.8 21.7 21.8 21.7 21.6 21.4 21.2 21.1 21.0 20.9 20.9 20.8 20.7 20.6 20.6 20.5 20.4 20.4 20.3 20.2 20.1 20.1 21.4 21.5 21.7 21.7 21.5 21.4 21.5 21.4 21.3 21.2 21.1 21.0 20.9 20.8 20.8 20.7 20.6 20.6 20.5 20.4 20.4 20.4 20.3 20.2 20.1 20.1 20.9 20.9 21.2 21.4 21.2 21.2 21.2 21.2 21.2 21.0 20.9 20.8 20.8 20.7 20.7 20.6 20.5 20.5 20.4 20.4 20.4 20.3 20.3 20.2 20.1 20.1 20.7 20.8 21.0 21.2 21.1 21.0 21.0 21.0 21.0 20.9 20.8 20.7 20.7 20.6 20.6 20.5 20.5 20.4 20.4 20.4 20.3 20.3 20.3 20.2 20.1 20.1 20.6 20.6 20.9 21.0 20.9 20.8 20.8 20.9 20.9 20.8 20.7 20.6 20.6 20.5 20.5 20.5 20.4 20.4 20.4 20.3 20.3 20.3 20.2 20.2 20.1 20.1 20.5 20.5 20.7 20.8 20.7 20.7 20.7 20.7 20.7 20.7 20.6 20.5 20.5 20.5 20.4 20.4 20.4 20.3 20.3 20.3 20.3 20.2 20.2 20.2 20.1 20.1 20.4 20.4 20.5 20.6 20.6 20.6 20.6 20.6 20.6 20.6 20.5 20.5 20.4 20.4 20.4 20.4 20.3 20.3 20.3 20.3 20.2 20.2 20.2 20.2 20.1 20.1 20.2 20.2 20.3 20.5 20.5 20.5 20.5 20.5 20.6 20.5 20.5 20.4 20.4 20.3 20.3 20.3 20.3 20.3 20.3 20.2 20.2 20.2 20.2 20.1 20.1 20.1 20.1 20.2 20.3 20.4 20.5 20.4 20.4 20.4 20.5 20.5 20.4 20.4 20.3 20.3 20.3 20.3 20.3 20.2 20.2 20.2 20.2 20.2 20.1 20.1 20.1 20.1 20.1 20.2 20.3 20.4 20.4 20.4 20.3 20.4 20.4 20.4 20.4 20.3 20.3 20.3 20.2 20.2 20.2 20.2 20.2 20.2 20.2 20.1 20.1 20.1 20.1 20.1 20.1 20.2 20.3 20.3 20.3 20.3 20.3 20.3 20.4 20.4 20.3 20.3 20.2 20.2 20.2 20.2 20.2 20.2 20.2 20.2 20.1 20.1 20.1 20.1 20.1 20.1 20.1 20.2 20.2 20.3 20.3 20.2 20.2 20.3 20.3 20.3 20.3 20.2 20.2 20.2 20.2 20.2 20.2 20.2 20.2 20.1 20.1 20.1 20.1 20.1 20.1 20.1 20.1 20.2 20.2 20.2 20.2 20.2 20.2 20.2 20.3 20.3 20.2 20.2 20.2 20.2 20.2 20.2 20.2 20.1 20.1 20.1 20.1 20.1 20.1 20.1 20.1 20.1 20.1 20.1 20.2 20.2 20.2 20.2 20.2 20.2 20.2 20.2 20.2 20.2 20.2 20.1 20.1 20.1 20.1 20.1 20.1 20.1 20.1 20.1 20.1 20.1 20.1 20.0 20.1 20.1 20.2 20.2 20.2 20.1 20.1 20.2 20.2 20.2 20.2 20.2 20.1 20.1 20.1 20.1 20.1 20.1 20.1 20.1 20.1 20.1 20.1 20.1 20.1 20.0 20.1 20.1 20.1 20.1 20.1 20.1 20.1 20.1 20.1 20.2 20.2 20.1 20.1 20.1 20.1 20.1 20.1 20.1 20.1 20.1 20.1 20.1 20.1 20.1 20.0 20.0 20.0 20.1 20.1 20.1 20.1 20.1 20.1 20.1 20.1 20.1 20.1 20.1 20.1 20.1 20.1 20.1 20.1 20.1 20.1 20.1 20.1 20.1 20.0 20.0 20.0 20.0 20.0 20.0 20.0 20.0 20.0 20.0 20.0 20.0 20.0 20.0 20.0 20.0 20.0 20.0 20.0 20.0 20.0 20.0 20.0 20.0 20.0 20.0 20.0 20.0 20.0 20.0 32.0 43.1 47.1 45.0 44.6 45.7 37.2 30.1 26.4 24.9 24.1 23.5 22.9 22.5 22.2 21.9 21.6 21.4 21.2 21.1 21.0 20.8 20.6 20.4 20.2 20.1 23.0 24.2 26.6 28.2 28.1 27.9 27.2 26.0 24.8 24.0 23.4 22.9 22.5 22.1 21.8 21.6 21.4 21.2 21.0 20.9 20.8 20.7 20.5 20.3 20.1 20.1 22.2 22.9 23.8 24.4 24.6 24.8 25.2 24.9 23.9 23.3 22.9 22.5 22.2 21.9 21.7 21.4 21.2 21.1 20.9 20.8 20.7 20.6 20.5 20.3 20.1 20.1 21.9 22.4 22.9 23.3 23.8 24.2 24.4 24.0 23.3 22.8 22.5 22.2 21.9 21.7 21.5 21.3 21.1 21.0 20.9 20.8 20.7 20.6 20.5 20.3 20.1 20.1 21.7 22.0 22.5 22.9 23.2 23.5 23.6 23.3 22.8 22.4 22.1 21.9 21.7 21.5 21.3 21.2 21.0 20.9 20.8 20.7 20.6 20.6 20.4 20.3 20.1 20.1 21.5 21.9 22.2 22.5 22.7 22.8 22.9 22.7 22.3 22.0 21.8 21.6 21.5 21.3 21.2 21.1 21.0 20.8 20.8 20.7 20.6 20.5 20.4 20.3 20.1 20.1 21.4 21.7 22.1 22.3 22.2 22.3 22.4 22.3 22.0 21.7 21.5 21.4 21.3 21.2 21.1 21.0 20.9 20.8 20.7 20.6 20.6 20.5 20.4 20.3 20.1 20.1 21.3 21.5 21.9 22.0 21.9 21.9 22.0 21.9 21.7 21.5 21.3 21.2 21.1 21.0 20.9 20.9 20.8 20.7 20.6 20.6 20.5 20.5 20.4 20.3 20.1 20.1 21.2 21.3 21.5 21.6 21.6 21.6 21.6 21.6 21.5 21.3 21.2 21.1 21.0 20.9 20.8 20.8 20.7 20.6 20.6 20.5 20.5 20.4 20.4 20.3 20.1 20.1 21.0 21.0 21.2 21.3 21.3 21.3 21.4 21.4 21.3 21.1 21.0 20.9 20.9 20.8 20.7 20.7 20.6 20.6 20.5 20.5 20.4 20.4 20.3 20.3 20.1 20.1 20.8 20.8 21.0 21.1 21.1 21.1 21.1 21.2 21.1 21.0 20.9 20.8 20.8 20.7 20.7 20.6 20.6 20.5 20.5 20.4 20.4 20.4 20.3 20.2 20.1 20.1 20.7 20.7 20.8 21.0 21.0 21.0 21.0 21.0 21.0 20.9 20.8 20.7 20.7 20.6 20.6 20.6 20.5 20.5 20.4 20.4 20.4 20.3 20.3 20.2 20.1 20.1 20.6 20.6 20.7 20.8 20.8 20.8 20.8 20.8 20.8 20.8 20.7 20.6 20.6 20.5 20.5 20.5 20.5 20.4 20.4 20.4 20.3 20.3 20.3 20.2 20.1 20.1 20.5 20.5 20.6 20.7 20.7 20.7 20.7 20.7 20.7 20.7 20.6 20.6 20.5 20.5 20.5 20.4 20.4 20.4 20.3 20.3 20.3 20.3 20.2 20.2 20.1 20.1 20.4 20.4 20.5 20.6 20.6 20.6 20.6 20.6 20.7 20.6 20.6 20.5 20.4 20.4 20.4 20.4 20.4 20.3 20.3 20.3 20.3 20.2 20.2 20.2 20.1 20.1 20.3 20.3 20.4 20.5 20.6 20.5 20.5 20.5 20.6 20.6 20.5 20.4 20.4 20.4 20.4 20.3 20.3 20.3 20.3 20.3 20.2 20.2 20.2 20.2 20.1 20.1 20.2 20.3 20.4 20.5 20.5 20.4 20.4 20.5 20.5 20.5 20.4 20.4 20.3 20.3 20.3 20.3 20.3 20.3 20.3 20.2 20.2 20.2 20.2 20.2 20.1 20.1 20.2 20.3 20.4 20.4 20.4 20.4 20.4 20.4 20.4 20.4 20.4 20.3 20.3 20.3 20.3 20.3 20.3 20.2 20.2 20.2 20.2 20.2 20.2 20.1 20.1 20.1 20.2 20.3 20.3 20.4 20.4 20.3 20.3 20.3 20.4 20.4 20.4 20.3 20.3 20.3 20.2 20.2 20.2 20.2 20.2 20.2 20.2 20.2 20.1 20.1 20.1 20.1 20.2 20.2 20.3 20.3 20.3 20.3 20.3 20.3 20.3 20.3 20.3 20.3 20.2 20.2 20.2 20.2 20.2 20.2 20.2 20.2 20.2 20.1 20.1 20.1 20.1 20.1 20.2 20.2 20.3 20.3 20.3 20.2 20.2 20.2 20.3 20.3 20.3 20.3 20.2 20.2 20.2 20.2 20.2 20.2 20.2 20.2 20.1 20.1 20.1 20.1 20.1 20.1 20.1 20.2 20.2 20.3 20.2 20.2 20.2 20.2 20.3 20.3 20.3 20.2 20.2 20.2 20.2 20.2 20.2 20.2 20.1 20.1 20.1 20.1 20.1 20.1 20.1 20.1 20.1 20.2 20.2 20.2 20.2 20.2 20.2 20.2 20.2 20.2 20.2 20.2 20.2 20.2 20.1 20.1 20.1 20.1 20.1 20.1 20.1 20.1 20.1 20.1 20.1 20.1 20.1 20.1 20.2 20.2 20.1 20.1 20.1 20.1 20.2 20.2 20.2 20.2 20.1 20.1 20.1 20.1 20.1 20.1 20.1 20.1 20.1 20.1 20.1 20.1 20.1 20.1 20.1 20.1 20.1 20.1 20.1 20.1 20.1 20.1 20.1 20.1 20.1 20.1 20.1 20.1 20.1 20.1 20.1 20.1 20.1 20.1 20.1 20.1 20.1 20.1 20.1 20.1 20.0 20.0 20.0 20.0 20.0 20.0 20.0 20.0 20.0 20.1 20.1 20.1 20.1 20.1 20.1 20.1 20.1 20.1 20.1 20.1 20.1 20.1 20.1 20.1 20.1 20.0 30.4 40.1 42.9 39.0 34.5 34.8 32.9 29.3 25.5 24.2 23.6 23.1 22.6 22.3 21.9 21.7 21.5 21.3 21.1 21.0 20.9 20.8 20.6 20.4 20.2 20.1 22.7 23.7 26.1 27.0 26.3 26.1 25.9 25.2 24.0 23.5 23.0 22.5 22.2 21.9 21.6 21.4 21.2 21.1 20.9 20.8 20.8 20.7 20.5 20.3 20.2 20.1 22.0 22.7 23.4 23.9 23.9 24.0 24.4 24.2 23.5 22.9 22.5 22.2 22.0 21.7 21.5 21.3 21.1 21.0 20.8 20.8 20.7 20.6 20.5 20.3 20.1 20.1 21.7 22.2 22.6 22.9 23.2 23.5 23.8 23.6 22.9 22.5 22.2 21.9 21.7 21.5 21.3 21.2 21.0 20.9 20.8 20.7 20.6 20.6 20.4 20.3 20.1 20.1 21.5 21.8 22.1 22.5 22.8 23.1 23.2 22.9 22.5 22.1 21.9 21.7 21.5 21.4 21.2 21.1 21.0 20.8 20.7 20.7 20.6 20.5 20.4 20.3 20.1 20.1 21.3 21.6 21.9 22.1 22.4 22.5 22.5 22.4 22.1 21.8 21.6 21.5 21.3 21.2 21.1 21.0 20.9 20.8 20.7 20.6 20.6 20.5 20.4 20.3 20.1 20.1 21.2 21.4 21.7 21.9 22.0 22.1 22.1 22.0 21.8 21.6 21.4 21.3 21.2 21.1 21.0 20.9 20.8 20.7 20.6 20.6 20.5 20.5 20.4 20.3 20.1 20.1 21.0 21.2 21.4 21.6 21.7 21.7 21.8 21.7 21.5 21.4 21.2 21.1 21.0 20.9 20.9 20.8 20.7 20.7 20.6 20.5 20.5 20.5 20.4 20.3 20.1 20.1 20.9 21.0 21.2 21.3 21.4 21.4 21.5 21.4 21.3 21.2 21.1 21.0 20.9 20.8 20.8 20.7 20.7 20.6 20.5 20.5 20.5 20.4 20.4 20.3 20.2 20.1 20.8 20.9 21.0 21.1 21.2 21.2 21.2 21.2 21.2 21.1 20.9 20.8 20.8 20.7 20.7 20.6 20.6 20.5 20.5 20.5 20.4 20.4 20.4 20.3 20.2 20.1 20.7 20.8 20.9 21.0 21.0 21.0 21.0 21.0 21.0 20.9 20.8 20.7 20.7 20.7 20.6 20.6 20.5 20.5 20.5 20.4 20.4 20.4 20.3 20.3 20.2 20.1 20.6 20.7 20.8 20.9 20.9 20.9 20.9 20.9 20.9 20.8 20.7 20.7 20.6 20.6 20.6 20.5 20.5 20.5 20.4 20.4 20.4 20.3 20.3 20.3 20.2 20.1 20.5 20.6 20.7 20.7 20.8 20.8 20.8 20.8 20.8 20.8 20.7 20.6 20.5 20.5 20.5 20.5 20.4 20.4 20.4 20.4 20.3 20.3 20.3 20.2 20.2 20.1 20.4 20.5 20.6 20.7 20.7 20.7 20.6 20.7 20.7 20.7 20.6 20.5 20.5 20.5 20.4 20.4 20.4 20.4 20.3 20.3 20.3 20.3 20.3 20.2 20.2 20.1 20.4 20.4 20.5 20.6 20.6 20.6 20.6 20.6 20.6 20.6 20.5 20.5 20.4 20.4 20.4 20.4 20.4 20.3 20.3 20.3 20.3 20.3 20.2 20.2 20.2 20.1 20.3 20.4 20.5 20.5 20.5 20.5 20.5 20.5 20.5 20.5 20.5 20.4 20.4 20.4 20.4 20.3 20.3 20.3 20.3 20.3 20.3 20.2 20.2 20.2 20.2 20.1 20.3 20.4 20.4 20.5 20.5 20.4 20.4 20.4 20.5 20.5 20.5 20.4 20.3 20.3 20.3 20.3 20.3 20.3 20.3 20.3 20.2 20.2 20.2 20.2 20.1 20.1 20.3 20.3 20.4 20.4 20.4 20.4 20.4 20.4 20.4 20.4 20.4 20.4 20.3 20.3 20.3 20.3 20.3 20.3 20.2 20.2 20.2 20.2 20.2 20.2 20.1 20.1 20.2 20.3 20.3 20.4 20.4 20.3 20.3 20.3 20.4 20.4 20.4 20.3 20.3 20.3 20.2 20.2 20.2 20.2 20.2 20.2 20.2 20.2 20.2 20.2 20.1 20.1 20.2 20.3 20.3 20.3 20.3 20.3 20.3 20.3 20.3 20.4 20.3 20.3 20.3 20.2 20.2 20.2 20.2 20.2 20.2 20.2 20.2 20.2 20.2 20.1 20.1 20.1 20.2 20.2 20.3 20.3 20.3 20.2 20.2 20.3 20.3 20.3 20.3 20.3 20.2 20.2 20.2 20.2 20.2 20.2 20.2 20.2 20.2 20.2 20.1 20.1 20.1 20.1 20.2 20.2 20.3 20.3 20.2 20.2 20.2 20.2 20.3 20.3 20.3 20.3 20.2 20.2 20.2 20.2 20.2 20.2 20.2 20.2 20.2 20.1 20.1 20.1 20.1 20.1 20.2 20.2 20.2 20.2 20.2 20.2 20.2 20.2 20.2 20.3 20.3 20.2 20.2 20.2 20.2 20.2 20.2 20.2 20.1 20.1 20.1 20.1 20.1 20.1 20.1 20.1 20.1 20.2 20.2 20.2 20.2 20.1 20.1 20.1 20.2 20.2 20.2 20.2 20.2 20.2 20.1 20.1 20.1 20.1 20.1 20.1 20.1 20.1 20.1 20.1 20.1 20.1 20.1 20.1 20.1 20.1 20.1 20.1 20.1 20.1 20.1 20.1 20.1 20.1 20.1 20.1 20.1 20.1 20.1 20.1 20.1 20.1 20.1 20.1 20.1 20.1 20.1 20.1 20.1 20.1 20.1 20.1 20.0 20.0 20.0 20.0 20.1 20.1 20.1 20.1 20.1 20.1 20.1 20.1 20.1 20.1 20.1 20.1 20.1 20.1 20.1 20.1 20.1 20.1 25.1 29.1 28.8 27.6 27.2 27.4 28.1 27.2 24.6 23.6 23.1 22.7 22.3 22.0 21.7 21.5 21.3 21.1 21.0 20.9 20.8 20.7 20.6 20.4 20.2 20.1 22.3 22.8 23.8 24.5 24.7 24.8 25.1 24.6 23.4 23.0 22.6 22.2 21.9 21.7 21.5 21.3 21.1 21.0 20.8 20.7 20.7 20.6 20.5 20.3 20.2 20.1 21.8 22.2 22.8 23.2 23.3 23.5 23.8 23.6 23.0 22.5 22.2 22.0 21.7 21.5 21.3 21.1 21.0 20.9 20.8 20.7 20.6 20.5 20.4 20.3 20.1 20.1 21.5 21.9 22.2 22.4 22.7 23.0 23.3 23.1 22.5 22.2 21.9 21.7 21.5 21.4 21.2 21.1 20.9 20.8 20.7 20.6 20.6 20.5 20.4 20.3 20.1 20.1 21.3 21.5 21.8 22.1 22.3 22.6 22.8 22.5 22.1 21.9 21.6 21.5 21.4 21.2 21.1 21.0 20.9 20.8 20.7 20.6 20.5 20.5 20.4 20.3 20.1 20.1 21.2 21.4 21.6 21.8 22.0 22.2 22.2 22.1 21.8 21.6 21.4 21.3 21.2 21.1 21.0 20.9 20.8 20.7 20.6 20.6 20.5 20.5 20.4 20.3 20.1 20.1 21.0 21.2 21.4 21.6 21.7 21.8 21.9 21.8 21.6 21.4 21.2 21.1 21.0 21.0 20.9 20.8 20.7 20.6 20.6 20.5 20.5 20.4 20.4 20.3 20.1 20.1 20.9 21.0 21.2 21.3 21.4 21.5 21.5 21.5 21.4 21.2 21.1 21.0 20.9 20.9 20.8 20.7 20.7 20.6 20.5 20.5 20.5 20.4 20.4 20.3 20.2 20.1 20.8 20.9 21.0 21.2 21.2 21.3 21.3 21.3 21.2 21.1 21.0 20.9 20.8 20.8 20.7 20.6 20.6 20.5 20.5 20.5 20.4 20.4 20.4 20.3 20.2 20.1 20.7 20.8 20.9 21.0 21.1 21.1 21.1 21.1 21.0 21.0 20.8 20.8 20.7 20.7 20.6 20.6 20.5 20.5 20.5 20.4 20.4 20.4 20.3 20.3 20.2 20.1 20.6 20.7 20.8 20.9 20.9 20.9 20.9 20.9 20.9 20.9 20.8 20.7 20.6 20.6 20.6 20.5 20.5 20.5 20.4 20.4 20.4 20.3 20.3 20.3 20.2 20.1 20.5 20.6 20.7 20.8 20.8 20.8 20.8 20.8 20.8 20.8 20.7 20.6 20.6 20.5 20.5 20.5 20.4 20.4 20.4 20.4 20.3 20.3 20.3 20.3 20.2 20.1 20.5 20.5 20.6 20.7 20.7 20.7 20.7 20.7 20.7 20.7 20.6 20.5 20.5 20.5 20.5 20.4 20.4 20.4 20.4 20.3 20.3 20.3 20.3 20.2 20.2 20.1 20.4 20.5 20.6 20.6 20.6 20.6 20.6 20.6 20.6 20.6 20.6 20.5 20.4 20.4 20.4 20.4 20.4 20.3 20.3 20.3 20.3 20.3 20.2 20.2 20.2 20.1 20.4 20.4 20.5 20.5 20.5 20.5 20.5 20.5 20.6 20.6 20.5 20.4 20.4 20.4 20.4 20.4 20.3 20.3 20.3 20.3 20.3 20.2 20.2 20.2 20.2 20.1 20.3 20.4 20.4 20.5 20.5 20.5 20.4 20.5 20.5 20.5 20.5 20.4 20.4 20.3 20.3 20.3 20.3 20.3 20.3 20.3 20.2 20.2 20.2 20.2 20.2 20.1 20.3 20.4 20.4 20.4 20.4 20.4 20.4 20.4 20.5 20.5 20.4 20.4 20.3 20.3 20.3 20.3 20.3 20.3 20.3 20.2 20.2 20.2 20.2 20.2 20.2 20.1 20.3 20.3 20.4 20.4 20.4 20.4 20.3 20.4 20.4 20.4 20.4 20.3 20.3 20.3 20.3 20.3 20.3 20.2 20.2 20.2 20.2 20.2 20.2 20.2 20.2 20.1 20.3 20.3 20.3 20.4 20.3 20.3 20.3 20.3 20.4 20.4 20.4 20.3 20.3 20.2 20.2 20.2 20.2 20.2 20.2 20.2 20.2 20.2 20.2 20.2 20.1 20.1 20.2 20.3 20.3 20.3 20.3 20.3 20.3 20.3 20.3 20.3 20.3 20.3 20.2 20.2 20.2 20.2 20.2 20.2 20.2 20.2 20.2 20.2 20.2 20.1 20.1 20.1 20.2 2