<?xml version="1.0"?>
<VTKFile type="PolyData" version="1.0" byte_order="LittleEndian" header_type="UInt64">
<PolyData>
<Piece NumberOfPoints="676" NumberOfVerts="0" NumberOfLines="0" NumberOfPolys="625">
    <Points>
        <DataArray type="Float32" NumberOfComponents="3" format="ascii">
        0.0 0.0 9.0 0.0 0.6 9.0 0.0 1.2 9.0 0.0 1.8 9.0 0.0 2.4 9.0 0.0 3.0 9.0 0.0 3.6 9.0 0.0 4.2 9.0 0.0 4.8 9.0 0.0 5.4 9.0 0.0 6.0 9.0 0.0 6.6 9.0 0.0 7.2 9.0 0.0 7.8 9.0 0.0 8.4 9.0 0.0 9.0 9.0 0.0 9.6 9.0 0.0 10.2 9.0 0.0 10.8 9.0 0.0 11.4 9.0 0.0 12.0 9.0 0.0 12.6 9.0 0.0 13.2 9.0 0.0 13.8 9.0 0.0 14.4 9.0 0.0 15.0 9.0 0.6 0.0 9.0 0.6 0.6 9.0 0.6 1.2 9.0 0.6 1.8 9.0 0.6 2.4 9.0 0.6 3.0 9.0 0.6 3.6 9.0 0.6 4.2 9.0 0.6 4.8 9.0 0.6 5.4 9.0 0.6 6.0 9.0 0.6 6.6 9.0 0.6 7.2 9.0 0.6 7.8 9.0 0.6 8.4 9.0 0.6 9.0 9.0 0.6 9.6 9.0 0.6 10.2 9.0 0.6 10.8 9.0 0.6 11.4 9.0 0.6 12.0 9.0 0.6 12.6 9.0 0.6 13.2 9.0 0.6 13.8 9.0 0.6 14.4 9.0 0.6 15.0 9.0 1.2 0.0 9.0 1.2 0.6 9.0 1.2 1.2 9.0 1.2 1.8 9.0 1.2 2.4 9.0 1.2 3.0 9.0 1.2 3.6 9.0 1.2 4.2 9.0 1.2 4.8 9.0 1.2 5.4 9.0 1.2 6.0 9.0 1.2 6.6 9.0 1.2 7.2 9.0 1.2 7.8 9.0 1.2 8.4 9.0 1.2 9.0 9.0 1.2 9.6 9.0 1.2 10.2 9.0 1.2 10.8 9.0 1.2 11.4 9.0 1.2 12.0 9.0 1.2 12.6 9.0 1.2 13.2 9.0 1.2 13.8 9.0 1.2 14.4 9.0 1.2 15.0 9.0 1.8 0.0 9.0 1.8 0.6 9.0 1.8 1.2 9.0 1.8 1.8 9.0 1.8 2.4 9.0 1.8 3.0 9.0 1.8 3.6 9.0 1.8 4.2 9.0 1.8 4.8 9.0 1.8 5.4 9.0 1.8 6.0 9.0 1.8 6.6 9.0 1.8 7.2 9.0 1.8 7.8 9.0 1.8 8.4 9.0 1.8 9.0 9.0 1.8 9.6 9.0 1.8 10.2 9.0 1.8 10.8 9.0 1.8 11.4 9.0 1.8 12.0 9.0 1.8 12.6 9.0 1.8 13.2 9.0 1.8 13.8 9.0 1.8 14.4 9.0 1.8 15.0 9.0 2.4 0.0 9.0 2.4 0.6 9.0 2.4 1.2 9.0 2.4 1.8 9.0 2.4 2.4 9.0 2.4 3.0 9.0 2.4 3.6 9.0 2.4 4.2 9.0 2.4 4.8 9.0 2.4 5.4 9.0 2.4 6.0 9.0 2.4 6.6 9.0 2.4 7.2 9.0 2.4 7.8 9.0 2.4 8.4 9.0 2.4 9.0 9.0 2.4 9.6 9.0 2.4 10.2 9.0 2.4 10.8 9.0 2.4 11.4 9.0 2.4 12.0 9.0 2.4 12.6 9.0 2.4 13.2 9.0 2.4 13.8 9.0 2.4 14.4 9.0 2.4 15.0 9.0 3.0 0.0 9.0 3.0 0.6 9.0 3.0 1.2 9.0 3.0 1.8 9.0 3.0 2.4 9.0 3.0 3.0 9.0 3.0 3.6 9.0 3.0 4.2 9.0 3.0 4.8 9.0 3.0 5.4 9.0 3.0 6.0 9.0 3.0 6.6 9.0 3.0 7.2 9.0 3.0 7.8 9.0 3.0 8.4 9.0 3.0 9.0 9.0 3.0 9.6 9.0 3.0 10.2 9.0 3.0 10.8 9.0 3.0 11.4 9.0 3.0 12.0 9.0 3.0 12.6 9.0 3.0 13.2 9.0 3.0 13.8 9.0 3.0 14.4 9.0 3.0 15.0 9.0 3.6 0.0 9.0 3.6 0.6 9.0 3.6 1.2 9.0 3.6 1.8 9.0 3.6 2.4 9.0 3.6 3.0 9.0 3.6 3.6 9.0 3.6 4.2 9.0 3.6 4.8 9.0 3.6 5.4 9.0 3.6 6.0 9.0 3.6 6.6 9.0 3.6 7.2 9.0 3.6 7.8 9.0 3.6 8.4 9.0 3.6 9.0 9.0 3.6 9.6 9.0 3.6 10.2 9.0 3.6 10.8 9.0 3.6 11.4 9.0 3.6 12.0 9.0 3.6 12.6 9.0 3.6 13.2 9.0 3.6 13.8 9.0 3.6 14.4 9.0 3.6 15.0 9.0 4.2 0.0 9.0 4.2 0.6 9.0 4.2 1.2 9.0 4.2 1.8 9.0 4.2 2.4 9.0 4.2 3.0 9.0 4.2 3.6 9.0 4.2 4.2 9.0 4.2 4.8 9.0 4.2 5.4 9.0 4.2 6.0 9.0 4.2 6.6 9.0 4.2 7.2 9.0 4.2 7.8 9.0 4.2 8.4 9.0 4.2 9.0 9.0 4.2 9.6 9.0 4.2 10.2 9.0 4.2 10.8 9.0 4.2 11.4 9.0 4.2 12.0 9.0 4.2 12.6 9.0 4.2 13.2 9.0 4.2 13.8 9.0 4.2 14.4 9.0 4.2 15.0 9.0 4.8 0.0 9.0 4.8 0.6 9.0 4.8 1.2 9.0 4.8 1.8 9.0 4.8 2.4 9.0 4.8 3.0 9.0 4.8 3.6 9.0 4.8 4.2 9.0 4.8 4.8 9.0 4.8 5.4 9.0 4.8 6.0 9.0 4.8 6.6 9.0 4.8 7.2 9.0 4.8 7.8 9.0 4.8 8.4 9.0 4.8 9.0 9.0 4.8 9.6 9.0 4.8 10.2 9.0 4.8 10.8 9.0 4.8 11.4 9.0 4.8 12.0 9.0 4.8 12.6 9.0 4.8 13.2 9.0 4.8 13.8 9.0 4.8 14.4 9.0 4.8 15.0 9.0 5.4 0.0 9.0 5.4 0.6 9.0 5.4 1.2 9.0 5.4 1.8 9.0 5.4 2.4 9.0 5.4 3.0 9.0 5.4 3.6 9.0 5.4 4.2 9.0 5.4 4.8 9.0 5.4 5.4 9.0 5.4 6.0 9.0 5.4 6.6 9.0 5.4 7.2 9.0 5.4 7.8 9.0 5.4 8.4 9.0 5.4 9.0 9.0 5.4 9.6 9.0 5.4 10.2 9.0 5.4 10.8 9.0 5.4 11.4 9.0 5.4 12.0 9.0 5.4 12.6 9.0 5.4 13.2 9.0 5.4 13.8 9.0 5.4 14.4 9.0 5.4 15.0 9.0 6.0 0.0 9.0 6.0 0.6 9.0 6.0 1.2 9.0 6.0 1.8 9.0 6.0 2.4 9.0 6.0 3.0 9.0 6.0 3.6 9.0 6.0 4.2 9.0 6.0 4.8 9.0 6.0 5.4 9.0 6.0 6.0 9.0 6.0 6.6 9.0 6.0 7.2 9.0 6.0 7.8 9.0 6.0 8.4 9.0 6.0 9.0 9.0 6.0 9.6 9.0 6.0 10.2 9.0 6.0 10.8 9.0 6.0 11.4 9.0 6.0 12.0 9.0 6.0 12.6 9.0 6.0 13.2 9.0 6.0 13.8 9.0 6.0 14.4 9.0 6.0 15.0 9.0 6.6 0.0 9.0 6.6 0.6 9.0 6.6 1.2 9.0 6.6 1.8 9.0 6.6 2.4 9.0 6.6 3.0 9.0 6.6 3.6 9.0 6.6 4.2 9.0 6.6 4.8 9.0 6.6 5.4 9.0 6.6 6.0 9.0 6.6 6.6 9.0 6.6 7.2 9.0 6.6 7.8 9.0 6.6 8.4 9.0 6.6 9.0 9.0 6.6 9.6 9.0 6.6 10.2 9.0 6.6 10.8 9.0 6.6 11.4 9.0 6.6 12.0 9.0 6.6 12.6 9.0 6.6 13.2 9.0 6.6 13.8 9.0 6.6 14.4 9.0 6.6 15.0 9.0 7.2 0.0 9.0 7.2 0.6 9.0 7.2 1.2 9.0 7.2 1.8 9.0 7.2 2.4 9.0 7.2 3.0 9.0 7.2 3.6 9.0 7.2 4.2 9.0 7.2 4.8 9.0 7.2 5.4 9.0 7.2 6.0 9.0 7.2 6.6 9.0 7.2 7.2 9.0 7.2 7.8 9.0 7.2 8.4 9.0 7.2 9.0 9.0 7.2 9.6 9.0 7.2 10.2 9.0 7.2 10.8 9.0 7.2 11.4 9.0 7.2 12.0 9.0 7.2 12.6 9.0 7.2 13.2 9.0 7.2 13.8 9.0 7.2 14.4 9.0 7.2 15.0 9.0 7.8 0.0 9.0 7.8 0.6 9.0 7.8 1.2 9.0 7.8 1.8 9.0 7.8 2.4 9.0 7.8 3.0 9.0 7.8 3.6 9.0 7.8 4.2 9.0 7.8 4.8 9.0 7.8 5.4 9.0 7.8 6.0 9.0 7.8 6.6 9.0 7.8 7.2 9.0 7.8 7.8 9.0 7.8 8.4 9.0 7.8 9.0 9.0 7.8 9.6 9.0 7.8 10.2 9.0 7.8 10.8 9.0 7.8 11.4 9.0 7.8 12.0 9.0 7.8 12.6 9.0 7.8 13.2 9.0 7.8 13.8 9.0 7.8 14.4 9.0 7.8 15.0 9.0 8.4 0.0 9.0 8.4 0.6 9.0 8.4 1.2 9.0 8.4 1.8 9.0 8.4 2.4 9.0 8.4 3.0 9.0 8.4 3.6 9.0 8.4 4.2 9.0 8.4 4.8 9.0 8.4 5.4 9.0 8.4 6.0 9.0 8.4 6.6 9.0 8.4 7.2 9.0 8.4 7.8 9.0 8.4 8.4 9.0 8.4 9.0 9.0 8.4 9.6 9.0 8.4 10.2 9.0 8.4 10.8 9.0 8.4 11.4 9.0 8.4 12.0 9.0 8.4 12.6 9.0 8.4 13.2 9.0 8.4 13.8 9.0 8.4 14.4 9.0 8.4 15.0 9.0 9.0 0.0 9.0 9.0 0.6 9.0 9.0 1.2 9.0 9.0 1.8 9.0 9.0 2.4 9.0 9.0 3.0 9.0 9.0 3.6 9.0 9.0 4.2 9.0 9.0 4.8 9.0 9.0 5.4 9.0 9.0 6.0 9.0 9.0 6.6 9.0 9.0 7.2 9.0 9.0 7.8 9.0 9.0 8.4 9.0 9.0 9.0 9.0 9.0 9.6 9.0 9.0 10.2 9.0 9.0 10.8 9.0 9.0 11.4 9.0 9.0 12.0 9.0 9.0 12.6 9.0 9.0 13.2 9.0 9.0 13.8 9.0 9.0 14.4 9.0 9.0 15.0 9.0 9.6 0.0 9.0 9.6 0.6 9.0 9.6 1.2 9.0 9.6 1.8 9.0 9.6 2.4 9.0 9.6 3.0 9.0 9.6 3.6 9.0 9.6 4.2 9.0 9.6 4.8 9.0 9.6 5.4 9.0 9.6 6.0 9.0 9.6 6.6 9.0 9.6 7.2 9.0 9.6 7.8 9.0 9.6 8.4 9.0 9.6 9.0 9.0 9.6 9.6 9.0 9.6 10.2 9.0 9.6 10.8 9.0 9.6 11.4 9.0 9.6 12.0 9.0 9.6 12.6 9.0 9.6 13.2 9.0 9.6 13.8 9.0 9.6 14.4 9.0 9.6 15.0 9.0 10.2 0.0 9.0 10.2 0.6 9.0 10.2 1.2 9.0 10.2 1.8 9.0 10.2 2.4 9.0 10.2 3.0 9.0 10.2 3.6 9.0 10.2 4.2 9.0 10.2 4.8 9.0 10.2 5.4 9.0 10.2 6.0 9.0 10.2 6.6 9.0 10.2 7.2 9.0 10.2 7.8 9.0 10.2 8.4 9.0 10.2 9.0 9.0 10.2 9.6 9.0 10.2 10.2 9.0 10.2 10.8 9.0 10.2 11.4 9.0 10.2 12.0 9.0 10.2 12.6 9.0 10.2 13.2 9.0 10.2 13.8 9.0 10.2 14.4 9.0 10.2 15.0 9.0 10.8 0.0 9.0 10.8 0.6 9.0 10.8 1.2 9.0 10.8 1.8 9.0 10.8 2.4 9.0 10.8 3.0 9.0 10.8 3.6 9.0 10.8 4.2 9.0 10.8 4.8 9.0 10.8 5.4 9.0 10.8 6.0 9.0 10.8 6.6 9.0 10.8 7.2 9.0 10.8 7.8 9.0 10.8 8.4 9.0 10.8 9.0 9.0 10.8 9.6 9.0 10.8 10.2 9.0 10.8 10.8 9.0 10.8 11.4 9.0 10.8 12.0 9.0 10.8 12.6 9.0 10.8 13.2 9.0 10.8 13.8 9.0 10.8 14.4 9.0 10.8 15.0 9.0 11.4 0.0 9.0 11.4 0.6 9.0 11.4 1.2 9.0 11.4 1.8 9.0 11.4 2.4 9.0 11.4 3.0 9.0 11.4 3.6 9.0 11.4 4.2 9.0 11.4 4.8 9.0 11.4 5.4 9.0 11.4 6.0 9.0 11.4 6.6 9.0 11.4 7.2 9.0 11.4 7.8 9.0 11.4 8.4 9.0 11.4 9.0 9.0 11.4 9.6 9.0 11.4 10.2 9.0 11.4 10.8 9.0 11.4 11.4 9.0 11.4 12.0 9.0 11.4 12.6 9.0 11.4 13.2 9.0 11.4 13.8 9.0 11.4 14.4 9.0 11.4 15.0 9.0 12.0 0.0 9.0 12.0 0.6 9.0 12.0 1.2 9.0 12.0 1.8 9.0 12.0 2.4 9.0 12.0 3.0 9.0 12.0 3.6 9.0 12.0 4.2 9.0 12.0 4.8 9.0 12.0 5.4 9.0 12.0 6.0 9.0 12.0 6.6 9.0 12.0 7.2 9.0 12.0 7.8 9.0 12.0 8.4 9.0 12.0 9.0 9.0 12.0 9.6 9.0 12.0 10.2 9.0 12.0 10.8 9.0 12.0 11.4 9.0 12.0 12.0 9.0 12.0 12.6 9.0 12.0 13.2 9.0 12.0 13.8 9.0 12.0 14.4 9.0 12.0 15.0 9.0 12.6 0.0 9.0 12.6 0.6 9.0 12.6 1.2 9.0 12.6 1.8 9.0 12.6 2.4 9.0 12.6 3.0 9.0 12.6 3.6 9.0 12.6 4.2 9.0 12.6 4.8 9.0 12.6 5.4 9.0 12.6 6.0 9.0 12.6 6.6 9.0 12.6 7.2 9.0 12.6 7.8 9.0 12.6 8.4 9.0 12.6 9.0 9.0 12.6 9.6 9.0 12.6 10.2 9.0 12.6 10.8 9.0 12.6 11.4 9.0 12.6 12.0 9.0 12.6 12.6 9.0 12.6 13.2 9.0 12.6 13.8 9.0 12.6 14.4 9.0 12.6 15.0 9.0 13.2 0.0 9.0 13.2 0.6 9.0 13.2 1.2 9.0 13.2 1.8 9.0 13.2 2.4 9.0 13.2 3.0 9.0 13.2 3.6 9.0 13.2 4.2 9.0 13.2 4.8 9.0 13.2 5.4 9.0 13.2 6.0 9.0 13.2 6.6 9.0 13.2 7.2 9.0 13.2 7.8 9.0 13.2 8.4 9.0 13.2 9.0 9.0 13.2 9.6 9.0 13.2 10.2 9.0 13.2 10.8 9.0 13.2 11.4 9.0 13.2 12.0 9.0 13.2 12.6 9.0 13.2 13.2 9.0 13.2 13.8 9.0 13.2 14.4 9.0 13.2 15.0 9.0 13.8 0.0 9.0 13.8 0.6 9.0 13.8 1.2 9.0 13.8 1.8 9.0 13.8 2.4 9.0 13.8 3.0 9.0 13.8 3.6 9.0 13.8 4.2 9.0 13.8 4.8 9.0 13.8 5.4 9.0 13.8 6.0 9.0 13.8 6.6 9.0 13.8 7.2 9.0 13.8 7.8 9.0 13.8 8.4 9.0 13.8 9.0 9.0 13.8 9.6 9.0 13.8 10.2 9.0 13.8 10.8 9.0 13.8 11.4 9.0 13.8 12.0 9.0 13.8 12.6 9.0 13.8 13.2 9.0 13.8 13.8 9.0 13.8 14.4 9.0 13.8 15.0 9.0 14.4 0.0 9.0 14.4 0.6 9.0 14.4 1.2 9.0 14.4 1.8 9.0 14.4 2.4 9.0 14.4 3.0 9.0 14.4 3.6 9.0 14.4 4.2 9.0 14.4 4.8 9.0 14.4 5.4 9.0 14.4 6.0 9.0 14.4 6.6 9.0 14.4 7.2 9.0 14.4 7.8 9.0 14.4 8.4 9.0 14.4 9.0 9.0 14.4 9.6 9.0 14.4 10.2 9.0 14.4 10.8 9.0 14.4 11.4 9.0 14.4 12.0 9.0 14.4 12.6 9.0 14.4 13.2 9.0 14.4 13.8 9.0 14.4 14.4 9.0 14.4 15.0 9.0 15.0 0.0 9.0 15.0 0.6 9.0 15.0 1.2 9.0 15.0 1.8 9.0 15.0 2.4 9.0 15.0 3.0 9.0 15.0 3.6 9.0 15.0 4.2 9.0 15.0 4.8 9.0 15.0 5.4 9.0 15.0 6.0 9.0 15.0 6.6 9.0 15.0 7.2 9.0 15.0 7.8 9.0 15.0 8.4 9.0 15.0 9.0 9.0 15.0 9.6 9.0 15.0 10.2 9.0 15.0 10.8 9.0 15.0 11.4 9.0 15.0 12.0 9.0 15.0 12.6 9.0 15.0 13.2 9.0 15.0 13.8 9.0 15.0 14.4 9.0 15.0 15.0 9.0 
        </DataArray>
    </Points>
    <PointData>
        <DataArray type="Float32" Name="water drops AMPUA" format="ascii">
            0.0 0.0 0.0 0.0 0.0 0.0 0.0 0.0 0.0 0.0 0.0 0.0 0.0 0.0 0.0 0.0 0.0 0.0 0.0 0.0 0.0 0.0 0.0 0.0 0.0 0.0 0.0 0.0 0.0 0.0 0.0 0.0 0.0 0.0 0.0 0.0 0.0 0.0 0.0 0.0 0.0 0.0 0.0 0.0 0.0 0.0 0.0 0.0 0.0 0.0 0.0 0.0 0.0 0.0 0.0 0.0 0.0 0.0 0.0 0.0 0.0 0.0 0.0 0.0 0.0 0.0 0.0 0.0 0.0 0.0 0.0 0.0 0.0 0.0 0.0 0.0 0.0 0.0 0.0 0.0 0.0 0.0 0.0 0.0 0.0 0.0 0.0 0.0 0.0 0.0 0.0 0.0 0.0 0.0 0.0 0.0 0.0 0.0 0.0 0.0 0.0 0.0 0.0 0.0 0.0 0.0 0.0 0.0 0.0 0.0 0.0 0.0 0.0 0.0 0.0 0.0 0.0 0.0 0.0 0.0 0.0 0.0 0.0 0.0 0.0 0.0 0.0 0.0 0.0 0.0 0.0 0.0 0.0 0.0 0.0 0.0 0.0 0.0 0.0 0.0 0.0 0.0 0.0 0.0 0.0 0.0 0.0 0.0 0.0 0.0 0.0 0.0 0.0 0.0 0.0 0.0 0.0 0.0 0.0 0.0 0.0 0.0 0.0 0.0 0.0 0.0 0.0 0.0 0.0 0.0 0.0 0.0 0.0 0.0 0.0 0.0 0.0 0.0 0.0 0.0 0.0 0.0 0.0 0.0 0.0 0.0 0.0 0.0 0.0 0.0 0.0 0.0 0.0 0.0 0.0 0.0 0.0 0.0 0.0 0.0 0.0 0.0 0.0 0.0 0.0 0.0 0.0 0.0 0.0 0.0 0.0 0.0 0.0 0.0 0.0 0.0 0.0 0.0 0.0 0.0 0.0 0.0 0.0 0.0 0.0 0.0 0.0 0.0 0.0 0.0 0.0 0.0 0.0 0.0 0.0 0.0 0.0 0.0 0.0 0.0 0.0 0.0 0.0 0.0 0.0 0.0 0.0 0.0 0.0 0.0 0.0 0.0 0.0 0.0 0.0 0.0 0.0 0.0 0.0 0.0 0.0 0.0 0.0 0.0 0.0 0.0 0.0 0.0 0.0 0.0 0.0 0.0 0.0 0.0 0.0 0.0 0.0 0.0 0.0 0.0 0.0 0.0 0.0 0.0 0.0 0.0 0.0 0.0 0.0 0.0 0.0 0.0 0.0 0.0 0.0 0.0 0.0 0.0 0.0 0.0 0.0 0.0 0.0 0.0 0.0 0.0 0.0 0.0 0.0 0.0 0.0 0.0 0.0 0.0 0.0 0.0 0.0 0.0 0.0 0.0 0.0 0.0 0.0 0.0 0.0 0.0 0.0 0.0 0.0 0.0 0.0 0.0 0.0 0.0 0.0 0.0 0.0 0.0 0.0 0.0 0.0 0.0 0.0 0.0 0.0 0.0 0.0 0.0 0.0 0.0 0.0 0.0 0.0 0.0 0.0 0.0 0.0 0.0 0.0 0.0 0.0 0.0 0.0 0.0 0.0 0.0 0.0 0.0 0.0 0.0 0.0 0.0 0.0 0.0 0.0 0.0 0.0 0.0 0.0 0.0 0.0 0.0 0.0 0.0 0.0 0.0 0.0 0.0 0.0 0.0 0.0 0.0 0.0 0.0 0.0 0.0 0.0 0.0 0.0 0.0 0.0 0.0 0.0 0.0 0.0 0.0 0.0 0.0 0.0 0.0 0.0 0.0 0.0 0.0 0.0 0.0 0.0 0.0 0.0 0.0 0.0 0.0 0.0 0.0 0.0 0.0 0.0 0.0 0.0 0.0 0.0 0.0 0.0 0.0 0.0 0.0 0.0 0.0 0.0 0.0 0.0 0.0 0.0 0.0 0.0 0.0 0.0 0.0 0.0 0.0 0.0 0.0 0.0 0.0 0.0 0.0 0.0 0.0 0.0 0.0 0.0 0.0 0.0 0.0 0.0 0.0 0.0 0.0 0.0 0.0 0.0 0.0 0.0 0.0 0.0 0.0 0.0 0.0 0.0 0.0 0.0 0.0 0.0 0.0 0.0 0.0 0.0 0.0 0.0 0.0 0.0 0.0 0.0 0.0 0.0 0.0 0.0 0.0 0.0 0.0 0.0 0.0 0.0 0.0 0.0 0.0 0.0 0.0 0.0 0.0 0.0 0.0 0.0 0.0 0.0 0.0 0.0 0.0 0.0 0.0 0.0 0.0 0.0 0.0 0.0 0.0 0.0 0.0 0.0 0.0 0.0 0.0 0.0 0.0 0.0 0.0 0.0 0.0 0.0 0.0 0.0 0.0 0.0 0.0 0.0 0.0 0.0 0.0 0.0 0.0 0.0 0.0 0.0 0.0 0.0 0.0 0.0 0.0 0.0 0.0 0.0 0.0 0.0 0.0 0.0 0.0 0.0 0.0 0.0 0.0 0.0 0.0 0.0 0.0 0.0 0.0 0.0 0.0 0.0 0.0 0.0 0.0 0.0 0.0 0.0 0.0 0.0 0.0 0.0 0.0 0.0 0.0 0.0 0.0 0.0 0.0 0.0 0.0 0.0 0.0 0.0 0.0 0.0 0.0 0.0 0.0 0.0 0.0 0.0 0.0 0.0 0.0 0.0 0.0 0.0 0.0 0.0 0.0 0.0 0.0 0.0 0.0 0.0 0.0 0.0 0.0 0.0 0.0 0.0 0.0 0.0 0.0 0.0 0.0 0.0 0.0 0.0 0.0 0.0 0.0 0.0 0.0 0.0 0.0 0.0 0.0 0.0 0.0 0.0 0.0 0.0 0.0 0.0 0.0 0.0 0.0 0.0 0.0 0.0 0.0 0.0 0.0 0.0 0.0 0.0 0.0 0.0 0.0 0.0 0.0 0.0 0.0 0.0 0.0 0.0 0.0 
         </DataArray>
        <DataArray type="Float32" Name="WALL TEMPERATURE" format="ascii">
            20.0 20.0 20.0 20.0 20.0 20.0 20.0 20.0 20.0 20.0 20.0 20.0 20.0 20.0 20.0 20.0 20.0 20.0 20.0 20.0 20.0 20.0 20.0 20.0 20.0 20.0 20.0 20.0 20.0 20.0 20.0 20.0 20.0 20.0 20.0 20.0 20.0 20.0 20.0 20.0 20.0 20.0 20.0 20.0 20.0 20.0 20.0 20.0 20.0 20.0 20.0 20.0 20.0 20.0 20.0 20.0 20.0 20.0 20.0 20.0 20.0 20.0 20.0 20.0 20.0 20.0 20.0 20.0 20.0 20.0 20.0 20.0 20.0 20.0 20.0 20.0 20.0 20.0 20.0 20.0 20.0 20.0 20.0 20.0 20.0 20.0 20.0 20.0 20.0 20.0 20.0 20.0 20.0 20.0 20.0 20.0 20.0 20.0 20.0 20.0 20.0 20.0 20.0 20.0 20.0 20.0 20.0 20.0 20.0 20.0 20.0 20.0 20.0 20.0 20.0 20.0 20.0 20.0 20.0 20.0 20.0 20.0 20.0 20.0 20.0 20.0 20.0 20.0 20.0 20.0 20.0 20.0 20.0 20.0 20.0 20.0 20.0 20.0 20.0 20.0 20.0 20.0 20.0 20.0 20.0 20.0 20.0 20.0 20.0 20.0 20.0 20.0 20.0 20.0 20.0 20.0 20.0 20.0 20.0 20.0 20.0 20.0 20.0 20.0 20.0 20.0 20.0 20.0 20.0 20.0 20.0 20.0 20.0 20.0 20.0 20.0 20.0 20.0 20.0 20.0 20.0 20.0 20.0 20.0 20.0 20.0 20.0 20.0 20.0 20.0 20.0 20.0 20.0 20.0 20.0 20.0 20.0 20.0 20.0 20.0 20.0 20.0 20.0 20.0 20.0 20.0 20.0 20.0 20.0 20.0 20.0 20.0 20.0 20.0 20.0 20.0 20.0 20.0 20.0 20.0 20.0 20.0 20.0 20.0 20.0 20.0 20.0 20.0 20.0 20.0 20.0 20.0 20.0 20.0 20.0 20.0 20.0 20.0 20.0 20.0 20.0 20.0 20.0 20.0 20.0 20.0 20.0 20.0 20.0 20.0 20.0 20.0 20.0 20.0 20.0 20.0 20.0 20.0 20.0 20.0 20.0 20.0 20.0 20.0 20.0 20.0 20.0 20.0 20.0 20.0 20.0 20.0 20.0 20.0 20.0 20.0 20.0 20.0 20.0 20.0 20.0 20.0 20.0 20.0 20.0 20.0 20.0 20.0 20.0 20.0 20.0 20.0 20.0 20.0 20.0 20.0 20.0 20.0 20.0 20.0 20.0 20.0 20.0 20.0 20.0 20.0 20.0 20.0 20.0 20.0 20.0 20.0 20.0 20.0 20.0 20.0 20.0 20.0 20.0 20.0 20.0 20.0 20.0 20.0 20.0 20.0 20.0 20.0 20.0 20.0 20.0 20.0 20.0 20.0 20.0 20.0 20.0 20.0 20.0 20.0 20.0 20.0 20.0 20.0 20.0 20.0 20.0 20.0 20.0 20.0 20.0 20.0 20.0 20.0 20.0 20.0 20.0 20.0 20.0 20.0 20.0 20.0 20.0 20.0 20.0 20.0 20.0 20.0 20.0 20.0 20.0 20.0 20.0 20.0 20.0 20.0 20.0 20.0 20.0 20.0 20.0 20.0 20.0 20.0 20.0 20.0 20.0 20.0 20.0 20.0 20.0 20.0 20.0 20.0 20.0 20.0 20.0 20.0 20.0 20.0 20.0 20.0 20.0 20.0 20.0 20.0 20.0 20.0 20.0 20.0 20.0 20.0 20.0 20.0 20.0 20.0 20.0 20.0 20.0 20.0 20.0 20.0 20.0 20.0 20.0 20.0 20.0 20.0 20.0 20.0 20.0 20.0 20.0 20.0 20.0 20.0 20.0 20.0 20.0 20.0 20.0 20.0 20.0 20.0 20.0 20.0 20.0 20.0 20.0 20.0 20.0 20.0 20.0 20.0 20.0 20.0 20.0 20.0 20.0 20.0 20.0 20.0 20.0 20.0 20.0 20.0 20.0 20.0 20.0 20.0 20.0 20.0 20.0 20.0 20.0 20.0 20.0 20.0 20.0 20.0 20.0 20.0 20.0 20.0 20.0 20.0 20.0 20.0 20.0 20.0 20.0 20.0 20.0 20.0 20.0 20.0 20.0 20.0 20.0 20.0 20.0 20.0 20.0 20.0 20.0 20.0 20.0 20.0 20.0 20.0 20.0 20.0 20.0 20.0 20.0 20.0 20.0 20.0 20.0 20.0 20.0 20.0 20.0 20.0 20.0 20.0 20.0 20.0 20.0 20.0 20.0 20.0 20.0 20.0 20.0 20.0 20.0 20.0 20.0 20.0 20.0 20.0 20.0 20.0 20.0 20.0 20.0 20.0 20.0 20.0 20.0 20.0 20.0 20.0 20.0 20.0 20.0 20.0 20.0 20.0 20.0 20.0 20.0 20.0 20.0 20.0 20.0 20.0 20.0 20.0 20.0 20.0 20.0 20.0 20.0 20.0 20.0 20.0 20.0 20.0 20.0 20.0 20.0 20.0 20.0 20.0 20.0 20.0 20.0 20.0 20.0 20.0 20.0 20.0 20.0 20.0 20.0 20.0 20.0 20.0 20.0 20.0 20.0 20.0 20.0 20.0 20.0 20.0 20.0 20.0 20.0 20.0 20.0 20.0 20.0 20.0 20.0 20.0 20.0 20.0 20.0 20.0 20.0 20.0 20.0 20.0 20.0 20.0 20.0 20.0 20.0 20.0 20.0 20.0 20.0 20.0 20.0 20.0 20.0 20.0 20.0 20.0 20.0 20.0 20.0 20.0 20.0 20.0 20.0 20.0 20.0 20.0 20.0 20.0 20.0 20.0 20.0 20.0 20.0 20.0 20.0 20.0 20.0 20.0 20.0 20.0 20.0 20.0 20.0 20.0 20.0 20.0 20.0 20.0 20.0 20.0 
         </DataArray>
        <DataArray type="Float32" Name="HRRPUA" format="ascii">
            0.0 0.0 0.0 0.0 0.0 0.0 0.0 0.0 0.0 0.0 0.0 0.0 0.0 0.0 0.0 0.0 0.0 0.0 0.0 0.0 0.0 0.0 0.0 0.0 0.0 0.0 0.0 0.0 0.0 0.0 0.0 0.0 0.0 0.0 0.0 0.0 0.0 0.0 0.0 0.0 0.0 0.0 0.0 0.0 0.0 0.0 0.0 0.0 0.0 0.0 0.0 0.0 0.0 0.0 0.0 0.0 0.0 0.0 0.0 0.0 0.0 0.0 0.0 0.0 0.0 0.0 0.0 0.0 0.0 0.0 0.0 0.0 0.0 0.0 0.0 0.0 0.0 0.0 0.0 0.0 0.0 0.0 0.0 0.0 0.0 0.0 0.0 0.0 0.0 0.0 0.0 0.0 0.0 0.0 0.0 0.0 0.0 0.0 0.0 0.0 0.0 0.0 0.0 0.0 0.0 0.0 0.0 0.0 0.0 0.0 0.0 0.0 0.0 0.0 0.0 0.0 0.0 0.0 0.0 0.0 0.0 0.0 0.0 0.0 0.0 0.0 0.0 0.0 0.0 0.0 0.0 0.0 0.0 0.0 0.0 0.0 0.0 0.0 0.0 0.0 0.0 0.0 0.0 0.0 0.0 0.0 0.0 0.0 0.0 0.0 0.0 0.0 0.0 0.0 0.0 0.0 0.0 0.0 0.0 0.0 0.0 0.0 0.0 0.0 0.0 0.0 0.0 0.0 0.0 0.0 0.0 0.0 0.0 0.0 0.0 0.0 0.0 0.0 0.0 0.0 0.0 0.0 0.0 0.0 0.0 0.0 0.0 0.0 0.0 0.0 0.0 0.0 0.0 0.0 0.0 0.0 0.0 0.0 0.0 0.0 0.0 0.0 0.0 0.0 0.0 0.0 0.0 0.0 0.0 0.0 0.0 0.0 0.0 0.0 0.0 0.0 0.0 0.0 0.0 0.0 0.0 0.0 0.0 0.0 0.0 0.0 0.0 0.0 0.0 0.0 0.0 0.0 0.0 0.0 0.0 0.0 0.0 0.0 0.0 0.0 0.0 0.0 0.0 0.0 0.0 0.0 0.0 0.0 0.0 0.0 0.0 0.0 0.0 0.0 0.0 0.0 0.0 0.0 0.0 0.0 0.0 0.0 0.0 0.0 0.0 0.0 0.0 0.0 0.0 0.0 0.0 0.0 0.0 0.0 0.0 0.0 0.0 0.0 0.0 0.0 0.0 0.0 0.0 0.0 0.0 0.0 0.0 0.0 0.0 0.0 0.0 0.0 0.0 0.0 0.0 0.0 0.0 0.0 0.0 0.0 0.0 0.0 0.0 0.0 0.0 0.0 0.0 0.0 0.0 0.0 0.0 0.0 0.0 0.0 0.0 0.0 0.0 0.0 0.0 0.0 0.0 0.0 0.0 0.0 0.0 0.0 0.0 0.0 0.0 0.0 0.0 0.0 0.0 0.0 0.0 0.0 0.0 0.0 0.0 0.0 0.0 0.0 0.0 0.0 0.0 0.0 0.0 0.0 0.0 0.0 0.0 0.0 0.0 0.0 0.0 0.0 0.0 0.0 0.0 0.0 0.0 0.0 0.0 0.0 0.0 0.0 0.0 0.0 0.0 0.0 0.0 0.0 0.0 0.0 0.0 0.0 0.0 0.0 0.0 0.0 0.0 0.0 0.0 0.0 0.0 0.0 0.0 0.0 0.0 0.0 0.0 0.0 0.0 0.0 0.0 0.0 0.0 0.0 0.0 0.0 0.0 0.0 0.0 0.0 0.0 0.0 0.0 0.0 0.0 0.0 0.0 0.0 0.0 0.0 0.0 0.0 0.0 0.0 0.0 0.0 0.0 0.0 0.0 0.0 0.0 0.0 0.0 0.0 0.0 0.0 0.0 0.0 0.0 0.0 0.0 0.0 0.0 0.0 0.0 0.0 0.0 0.0 0.0 0.0 0.0 0.0 0.0 0.0 0.0 0.0 0.0 0.0 0.0 0.0 0.0 0.0 0.0 0.0 0.0 0.0 0.0 0.0 0.0 0.0 0.0 0.0 0.0 0.0 0.0 0.0 0.0 0.0 0.0 0.0 0.0 0.0 0.0 0.0 0.0 0.0 0.0 0.0 0.0 0.0 0.0 0.0 0.0 0.0 0.0 0.0 0.0 0.0 0.0 0.0 0.0 0.0 0.0 0.0 0.0 0.0 0.0 0.0 0.0 0.0 0.0 0.0 0.0 0.0 0.0 0.0 0.0 0.0 0.0 0.0 0.0 0.0 0.0 0.0 0.0 0.0 0.0 0.0 0.0 0.0 0.0 0.0 0.0 0.0 0.0 0.0 0.0 0.0 0.0 0.0 0.0 0.0 0.0 0.0 0.0 0.0 0.0 0.0 0.0 0.0 0.0 0.0 0.0 0.0 0.0 0.0 0.0 0.0 0.0 0.0 0.0 0.0 0.0 0.0 0.0 0.0 0.0 0.0 0.0 0.0 0.0 0.0 0.0 0.0 0.0 0.0 0.0 0.0 0.0 0.0 0.0 0.0 0.0 0.0 0.0 0.0 0.0 0.0 0.0 0.0 0.0 0.0 0.0 0.0 0.0 0.0 0.0 0.0 0.0 0.0 0.0 0.0 0.0 0.0 0.0 0.0 0.0 0.0 0.0 0.0 0.0 0.0 0.0 0.0 0.0 0.0 0.0 0.0 0.0 0.0 0.0 0.0 0.0 0.0 0.0 0.0 0.0 0.0 0.0 0.0 0.0 0.0 0.0 0.0 0.0 0.0 0.0 0.0 0.0 0.0 0.0 0.0 0.0 0.0 0.0 0.0 0.0 0.0 0.0 0.0 0.0 0.0 0.0 0.0 0.0 0.0 0.0 0.0 0.0 0.0 0.0 0.0 0.0 0.0 0.0 0.0 0.0 0.0 0.0 0.0 0.0 0.0 0.0 0.0 0.0 0.0 0.0 0.0 0.0 0.0 0.0 0.0 
         </DataArray>
        <DataArray type="Float32" Name="GAS TEMPERATURE" format="ascii">
            20.0 20.0 20.0 20.0 20.0 20.0 20.0 20.0 20.0 20.0 20.0 20.0 20.0 20.0 20.0 20.0 20.0 20.0 20.0 20.0 20.0 20.0 20.0 20.0 20.0 20.0 20.0 20.0 20.0 20.0 20.0 20.0 20.0 20.0 20.0 20.0 20.0 20.0 20.0 20.0 20.0 20.0 20.0 20.0 20.0 20.0 20.0 20.0 20.0 20.0 20.0 20.0 20.0 20.0 20.0 20.0 20.0 20.0 20.0 20.0 20.0 20.0 20.0 20.0 20.0 20.0 20.0 20.0 20.0 20.0 20.0 20.0 20.0 20.0 20.0 20.0 20.0 20.0 20.0 20.0 20.0 20.0 20.0 20.0 20.0 20.0 20.0 20.0 20.0 20.0 20.0 20.0 20.0 20.0 20.0 20.0 20.0 20.0 20.0 20.0 20.0 20.0 20.0 20.0 20.0 20.0 20.0 20.0 20.0 20.0 20.0 20.0 20.0 20.0 20.0 20.0 20.0 20.0 20.0 20.0 20.0 20.0 20.0 20.0 20.0 20.0 20.0 20.0 20.0 20.0 20.0 20.0 20.0 20.0 20.0 20.0 20.0 20.0 20.0 20.0 20.0 20.0 20.0 20.0 20.0 20.0 20.0 20.0 20.0 20.0 20.0 20.0 20.0 20.0 20.0 20.0 20.0 20.0 20.0 20.0 20.0 20.0 20.0 20.0 20.0 20.0 20.0 20.0 20.0 20.0 20.0 20.0 20.0 20.0 20.0 20.0 20.0 20.0 20.0 20.0 20.0 20.0 20.0 20.0 20.0 20.0 20.0 20.0 20.0 20.0 20.0 20.0 20.0 20.0 20.0 20.0 20.0 20.0 20.0 20.0 20.0 20.0 20.0 20.0 20.0 20.0 20.0 20.0 20.0 20.0 20.0 20.0 20.0 20.0 20.0 20.0 20.0 20.0 20.0 20.0 20.0 20.0 20.0 20.0 20.0 20.0 20.0 20.0 20.0 20.0 20.0 20.0 20.0 20.0 20.0 20.0 20.0 20.0 20.0 20.0 20.0 20.0 20.0 20.0 20.0 20.0 20.0 20.0 20.0 20.0 20.0 20.0 20.0 20.0 20.0 20.0 20.0 20.0 20.0 20.0 20.0 20.0 20.0 20.0 20.0 20.0 20.0 20.0 20.0 20.0 20.0 20.0 20.0 20.0 20.0 20.0 20.0 20.0 20.0 20.0 20.0 20.0 20.0 20.0 20.0 20.0 20.0 20.0 20.0 20.0 20.0 20.0 20.0 20.0 20.0 20.0 20.0 20.0 20.0 20.0 20.0 20.0 20.0 20.0 20.0 20.0 20.0 20.0 20.0 20.0 20.0 20.0 20.0 20.0 20.0 20.0 20.0 20.0 20.0 20.0 20.0 20.0 20.0 20.0 20.0 20.0 20.0 20.0 20.0 20.0 20.0 20.0 20.0 20.0 20.0 20.0 20.0 20.0 20.0 20.0 20.0 20.0 20.0 20.0 20.0 20.0 20.0 20.0 20.0 20.0 20.0 20.0 20.0 20.0 20.0 20.0 20.0 20.0 20.0 20.0 20.0 20.0 20.0 20.0 20.0 20.0 20.0 20.0 20.0 20.0 20.0 20.0 20.0 20.0 20.0 20.0 20.0 20.0 20.0 20.0 20.0 20.0 20.0 20.0 20.0 20.0 20.0 20.0 20.0 20.0 20.0 20.0 20.0 20.0 20.0 20.0 20.0 20.0 20.0 20.0 20.0 20.0 20.0 20.0 20.0 20.0 20.0 20.0 20.0 20.0 20.0 20.0 20.0 20.0 20.0 20.0 20.0 20.0 20.0 20.0 20.0 20.0 20.0 20.0 20.0 20.0 20.0 20.0 20.0 20.0 20.0 20.0 20.0 20.0 20.0 20.0 20.0 20.0 20.0 20.0 20.0 20.0 20.0 20.0 20.0 20.0 20.0 20.0 20.0 20.0 20.0 20.0 20.0 20.0 20.0 20.0 20.0 20.0 20.0 20.0 20.0 20.0 20.0 20.0 20.0 20.0 20.0 20.0 20.0 20.0 20.0 20.0 20.0 20.0 20.0 20.0 20.0 20.0 20.0 20.0 20.0 20.0 20.0 20.0 20.0 20.0 20.0 20.0 20.0 20.0 20.0 20.0 20.0 20.0 20.0 20.0 20.0 20.0 20.0 20.0 20.0 20.0 20.0 20.0 20.0 20.0 20.0 20.0 20.0 20.0 20.0 20.0 20.0 20.0 20.0 20.0 20.0 20.0 20.0 20.0 20.0 20.0 20.0 20.0 20.0 20.0 20.0 20.0 20.0 20.0 20.0 20.0 20.0 20.0 20.0 20.0 20.0 20.0 20.0 20.0 20.0 20.0 20.0 20.0 20.0 20.0 20.0 20.0 20.0 20.0 20.0 20.0 20.0 20.0 20.0 20.0 20.0 20.0 20.0 20.0 20.0 20.0 20.0 20.0 20.0 20.0 20.0 20.0 20.0 20.0 20.0 20.0 20.0 20.0 20.0 20.0 20.0 20.0 20.0 20.0 20.0 20.0 20.0 20.0 20.0 20.0 20.0 20.0 20.0 20.0 20.0 20.0 20.0 20.0 20.0 20.0 20.0 20.0 20.0 20.0 20.0 20.0 20.0 20.0 20.0 20.0 20.0 20.0 20.0 20.0 20.0 20.0 20.0 20.0 20.0 20.0 20.0 20.0 20.0 20.0 20.0 20.0 20.0 20.0 20.0 20.0 20.0 20.0 20.0 20.0 20.0 20.0 20.0 20.0 20.0 20.0 20.0 20.0 20.0 20.0 20.0 20.0 20.0 20.0 20.0 20.0 20.0 20.0 20.0 20.0 20.0 20.0 20.0 20.0 20.0 20.0 20.0 20.0 20.0 20.0 20.0 20.0 20.0 20.0 20.0 20.0 20.0 20.0 20.0 20.0 20.0 20.0 20.0 20.0 20.0 20.0 
         </DataArray>
    </PointData>
    <Polys>
        <DataArray type="Int32" Name="connectivity" format="ascii">