19
Energy = -27.38694726
 N    1.32848934    1.32317204    1.13197168
 C    2.11600530    0.14946182    0.73283180
 C    1.61547644   -0.40204281   -0.60877202
 C    0.54512296   -1.48785430   -0.46390135
 C   -0.68541332   -1.09030716    0.36606629
 C   -1.46517317    0.03898603   -0.27856423
 O   -1.02921174    1.25842014   -0.04200259
 O   -2.44050770   -0.15554664   -0.97549571
 H    1.67190278    2.14881663    0.65182968
 H    1.40101788    1.49050317    2.12907465
 H    2.01323431   -0.61801955    1.50246965
 H    3.18200867    0.39572973    0.65214210
 H    2.45491150   -0.84080929   -1.15007055
 H    1.23325048    0.42203100   -1.21368160
 H    0.99420801   -2.36291133    0.01057153
 H    0.21036981   -1.78555441   -1.45995394
 H   -1.35010289   -1.95254098    0.43385983
 H   -0.38421334   -0.79177130    1.36994845
 H   -0.14563403    1.26847055    0.50175384
19
Energy = -27.38617572
 N    1.38229082    1.23483816    1.04186388
 C    2.13547233    0.51605462    0.01389979
 C    1.90330623   -0.99238687    0.12425915
 C    0.43374508   -1.39852753    0.27555695
 C   -0.48013242   -0.89631739   -0.85459134
 C   -1.53118985    0.10393366   -0.40305860
 O   -1.15909040    1.05445057    0.42247128
 O   -2.67895047    0.03845404   -0.79982189
 H    1.58403851    2.22777184    1.00540578
 H    1.62797581    0.89320966    1.96566101
 H    3.21587170    0.70701594    0.07663774
 H    1.79357680    0.88672918   -0.95597657
 H    2.44681732   -1.37353318    0.99140311
 H    2.32310561   -1.46670741   -0.76377090
 H    0.05400348   -1.04705635    1.23640462
 H    0.39374721   -2.48791705    0.30159372
 H    0.10664597   -0.40854553   -1.63543882
 H   -1.01717126   -1.71982926   -1.32565116
 H   -0.14292935    1.06481828    0.67214138


