<?xml version="1.0"?>
<VTKFile type="ImageData" version="1.0" byte_order="LittleEndian" header_type="UInt64">
<ImageData WholeExtent="25 50 0 25 1 1"
 Origin="15.0000 0.0000 0.0000" Spacing="0.6000 0.6000 0.6000">
<Piece Extent="25 50 0 25 1 1">
<PointData>
<DataArray Name="TEMPERATURE" NumberOfComponents="1" type="Float32" format="ascii">
41.1 42.8 41.5 40.2 35.8 32.9 31.8 29.3 27.8 29.2 31.7 32.2 31.3 31.5 31.2 30.0 29.3 28.4 26.7 26.4 25.5 24.3 23.7 23.7 23.1 21.4 42.0 43.8 42.3 38.9 34.2 33.0 33.1 31.1 29.1 29.4 31.9 33.4 32.9 32.6 32.1 31.1 30.1 29.2 28.1 27.8 27.1 26.2 25.4 24.9 24.3 23.1 40.9 41.3 40.4 36.2 31.9 32.3 34.3 33.7 31.4 31.0 32.3 34.0 34.1 33.5 32.8 31.9 30.2 28.8 28.4 28.6 28.3 28.2 27.5 26.5 25.7 24.6 37.7 35.2 36.7 36.1 32.6 31.2 33.0 33.6 32.1 32.6 33.6 34.4 34.5 33.9 33.1 32.3 30.6 28.7 28.0 28.6 28.8 29.2 29.0 28.3 27.2 25.6 35.0 32.2 34.5 37.9 35.6 31.3 31.2 32.0 31.4 32.3 33.9 34.7 34.4 33.8 33.0 32.2 30.8 29.3 28.9 29.4 29.6 30.0 30.3 30.1 28.8 26.9 36.4 34.8 36.8 42.5 43.3 37.9 33.6 31.7 31.2 32.3 34.0 34.1 32.8 32.2 32.2 32.0 31.0 29.8 29.4 29.7 29.8 30.1 30.5 30.9 29.8 28.3 45.4 46.2 49.4 52.8 53.7 49.6 40.5 32.6 30.4 31.8 33.8 33.7 31.3 30.1 30.5 31.1 30.9 29.7 29.2 29.3 29.3 29.6 30.0 30.5 29.0 27.3 53.5 56.8 61.7 61.0 59.1 55.9 45.9 34.5 29.2 29.5 31.6 32.1 29.8 28.1 28.2 28.9 29.2 28.6 28.4 28.6 28.6 28.7 29.0 29.5 27.9 26.2 52.2 56.3 62.4 61.0 58.7 55.8 47.1 36.6 29.4 27.8 29.4 29.9 28.3 26.8 26.8 27.5 27.9 27.7 27.5 27.5 27.6 27.9 28.2 28.6 27.4 25.9 49.5 53.4 58.2 57.1 56.5 54.1 46.0 37.3 30.2 27.6 28.2 28.3 27.4 26.2 25.9 26.3 26.6 26.6 26.4 26.3 26.5 27.1 27.5 27.8 26.8 25.5 50.7 53.8 56.0 55.5 57.6 55.5 46.3 38.0 31.4 28.4 27.6 27.1 26.4 25.5 25.2 25.3 25.6 25.8 25.7 25.5 25.7 26.4 26.9 27.2 26.7 25.8 50.8 55.3 58.2 59.3 58.9 55.4 47.8 38.9 33.0 30.7 28.3 26.6 25.6 25.1 25.0 25.1 25.3 25.4 25.2 25.0 25.0 25.5 26.1 26.8 26.6 25.8 49.3 57.3 62.7 63.1 55.5 50.4 48.8 40.8 33.8 32.5 30.3 27.7 26.3 25.7 25.4 25.4 25.5 25.4 25.2 24.9 24.7 24.9 25.4 26.5 26.8 26.3 44.6 55.0 65.2 65.0 51.7 44.0 47.1 43.3 34.3 31.9 31.6 30.1 28.6 27.7 27.0 26.5 26.2 26.0 25.7 25.2 24.7 24.5 24.9 26.1 26.9 26.7 39.3 50.0 67.2 70.6 52.4 40.7 43.5 43.1 34.7 30.5 31.0 31.0 30.5 30.3 29.7 28.6 27.5 26.7 26.1 25.4 24.8 24.5 24.7 25.9 27.0 27.1 43.6 53.5 73.6 81.5 60.9 49.4 47.3 41.7 34.9 30.0 29.7 30.1 30.6 31.1 31.0 30.1 28.6 27.2 26.2 25.4 24.8 24.8 25.2 26.2 27.1 27.0 64.2 75.8 87.6 93.5 75.7 66.5 59.1 44.0 36.9 31.7 29.9 30.1 30.5 30.8 30.6 30.1 28.8 27.4 26.3 25.4 24.9 25.4 26.2 27.2 27.6 26.9 87.8 100.2 99.8 99.4 87.8 78.9 68.8 50.1 39.9 34.2 31.3 31.2 31.2 30.9 30.3 29.6 28.5 27.2 26.1 25.4 25.2 26.3 27.5 28.5 28.4 27.4 101.9 108.9 100.2 96.0 90.3 79.7 67.8 53.9 42.3 35.5 32.9 32.5 32.1 31.6 30.7 29.6 28.2 26.9 26.0 25.7 25.8 27.4 28.9 29.8 29.3 28.0 109.2 107.2 95.4 91.7 90.4 77.3 63.8 61.0 54.3 43.1 36.5 34.0 32.6 31.9 31.2 29.7 27.8 26.5 26.1 26.2 26.8 28.6 30.0 30.4 29.6 28.3 106.3 106.1 99.5 103.9 106.3 88.5 73.2 79.7 76.9 57.5 44.5 37.9 33.2 32.0 31.3 29.7 27.6 26.5 26.5 27.0 27.8 29.3 30.0 29.9 28.8 27.5 103.3 114.5 119.7 124.5 122.6 111.7 97.9 93.3 83.6 62.1 50.0 41.9 34.3 32.9 31.8 30.0 28.0 26.8 26.9 27.5 28.4 29.5 29.5 29.4 28.0 26.2 107.4 125.7 133.3 126.4 116.7 115.8 106.7 89.1 71.2 55.6 48.3 41.5 34.6 33.8 32.6 30.8 28.8 27.3 26.9 27.2 27.8 28.6 28.9 29.3 28.2 26.4 113.6 126.4 122.7 109.2 100.9 101.5 97.4 83.1 64.3 53.5 49.7 42.1 35.0 34.1 33.2 31.5 29.5 27.7 26.9 26.8 26.9 27.3 27.8 28.7 28.4 27.3 109.3 121.1 108.6 92.4 85.3 83.1 83.9 79.5 67.9 60.3 53.7 41.9 34.3 33.7 33.3 31.9 29.8 27.9 26.8 26.5 26.4 26.7 27.2 28.1 28.2 27.4 83.4 118.4 106.7 87.3 74.0 62.2 62.3 67.7 65.7 57.4 46.5 36.1 32.6 33.0 33.0 32.1 30.0 27.8 26.6 26.3 26.1 26.4 26.9 27.7 27.8 27.0 
</DataArray>
</PointData>
</Piece>
</ImageData>
</VTKFile>
