<?xml version="1.0"?>
<VTKFile type="PolyData" version="1.0" byte_order="LittleEndian" header_type="UInt64">
<PolyData>
<Piece NumberOfPoints="450" NumberOfVerts="0" NumberOfLines="0" NumberOfPolys="222">
    <Points>
        <DataArray type="Float32" NumberOfComponents="3" format="ascii">
        15.3 20.0 1.8 15.6 20.0 1.7 15.6 20.0 1.8 15.3 20.0 1.8 15.3 20.4 1.8 15.6 20.4 1.7 15.6 20.0 1.7 15.6 20.0 1.8 15.6 20.0 1.7 16.2 20.0 1.6 16.2 20.0 1.8 15.6 20.0 1.7 15.6 20.4 1.7 16.2 20.4 1.6 16.2 20.0 1.6 16.2 20.0 1.8 16.2 20.0 1.6 16.4 20.0 1.5 16.4 20.0 1.8 16.2 20.0 1.6 16.2 20.4 1.6 16.4 20.4 1.5 16.4 20.0 1.5 16.4 20.0 1.8 16.4 20.0 1.5 16.4 20.4 1.5 16.4 20.4 1.8 15.3 20.4 1.8 15.3 21.0 1.8 15.6 21.0 1.7 15.6 20.4 1.7 15.6 20.4 1.7 15.6 21.0 1.7 16.2 21.0 1.6 16.2 20.4 1.6 16.2 20.4 1.6 16.2 21.0 1.6 16.4 21.0 1.5 16.4 20.4 1.5 16.4 20.4 1.8 16.4 20.4 1.5 16.4 21.0 1.5 16.4 21.0 1.8 15.3 21.0 1.8 15.3 21.6 1.8 15.6 21.6 1.7 15.6 21.0 1.7 15.6 21.0 1.7 15.6 21.6 1.7 16.2 21.6 1.6 16.2 21.0 1.6 16.2 21.0 1.6 16.2 21.6 1.6 16.4 21.6 1.5 16.4 21.0 1.5 16.4 21.0 1.8 16.4 21.0 1.5 16.4 21.6 1.5 16.4 21.6 1.8 15.3 21.6 1.8 15.3 22.2 1.8 15.6 22.2 1.7 15.6 21.6 1.7 15.6 21.6 1.7 15.6 22.2 1.7 16.2 22.2 1.6 16.2 21.6 1.6 16.2 21.6 1.6 16.2 22.2 1.6 16.4 22.2 1.5 16.4 21.6 1.5 16.4 21.6 1.8 16.4 21.6 1.5 16.4 22.2 1.5 16.4 22.2 1.8 15.3 22.2 1.8 15.3 22.8 1.8 15.6 22.8 1.7 15.6 22.2 1.7 15.6 22.2 1.7 15.6 22.8 1.7 16.2 22.8 1.6 16.2 22.2 1.6 16.2 22.2 1.6 16.2 22.8 1.6 16.4 22.8 1.5 16.4 22.2 1.5 16.4 22.2 1.8 16.4 22.2 1.5 16.4 22.8 1.5 16.4 22.8 1.8 15.3 22.8 1.8 15.3 22.9 1.8 15.6 23.2 1.7 15.6 22.8 1.7 15.3 22.9 1.8 15.3 23.4 1.8 15.6 23.4 1.7 15.6 23.2 1.7 15.6 22.8 1.7 15.6 23.2 1.7 15.8 23.4 1.7 16.2 23.4 1.6 16.2 22.8 1.6 15.6 23.2 1.7 15.6 23.4 1.7 15.8 23.4 1.7 16.2 22.8 1.6 16.2 23.4 1.6 16.4 23.4 1.5 16.4 22.8 1.5 16.4 22.8 1.8 16.4 22.8 1.5 16.4 23.4 1.5 16.4 23.4 1.7 16.4 22.8 1.8 16.4 22.8 1.8 16.4 23.4 1.7 16.4 23.4 1.8 15.3 23.4 1.8 15.3 24.0 1.8 15.6 24.0 1.7 15.6 23.4 1.7 15.6 23.4 1.7 15.6 24.0 1.7 16.2 24.0 1.6 16.2 23.8 1.6 15.8 23.4 1.7 15.8 23.4 1.7 16.2 23.8 1.6 16.2 23.4 1.6 16.2 23.4 1.6 16.2 23.8 1.6 16.4 24.0 1.5 16.4 23.4 1.5 16.2 23.8 1.6 16.2 24.0 1.6 16.4 24.0 1.5 16.4 23.4 1.7 16.4 23.4 1.5 16.4 24.0 1.5 16.4 23.4 1.8 16.4 23.4 1.7 16.4 24.0 1.5 16.4 24.0 1.8 15.3 24.0 1.8 15.6 24.0 1.8 15.6 24.0 1.7 15.6 24.0 1.7 15.6 24.0 1.8 16.2 24.0 1.8 16.2 24.0 1.6 16.2 24.0 1.6 16.2 24.0 1.8 16.4 24.0 1.8 16.4 24.0 1.5 15.0 20.0 2.4 15.0 20.0 1.9 15.3 20.0 1.8 15.6 20.0 1.8 15.6 20.0 2.4 15.0 20.0 1.9 15.0 20.4 1.9 15.3 20.4 1.8 15.3 20.0 1.8 15.6 20.0 2.4 15.6 20.0 1.8 16.2 20.0 1.8 16.2 20.0 2.4 16.2 20.0 2.4 16.2 20.0 1.8 16.4 20.0 1.8 16.6 20.0 2.4 16.6 20.3 2.4 16.6 20.0 2.4 16.4 20.0 1.8 16.4 20.4 1.8 16.6 20.4 2.4 16.6 20.3 2.4 16.6 20.4 2.4 16.6 20.4 2.4 15.0 20.4 1.9 15.0 21.0 1.9 15.3 21.0 1.8 15.3 20.4 1.8 16.6 20.4 2.4 16.4 20.4 1.8 16.4 21.0 1.8 16.6 21.0 2.2 16.6 20.4 2.4 16.6 20.4 2.4 16.6 21.0 2.2 16.6 21.0 2.4 15.0 21.0 1.9 15.0 21.6 1.9 15.3 21.6 1.8 15.3 21.0 1.8 16.6 21.0 2.2 16.4 21.0 1.8 16.4 21.6 1.8 16.5 21.6 2.1 16.6 21.0 2.4 16.6 21.0 2.2 16.5 21.6 2.1 16.6 21.6 2.4 15.0 21.6 1.9 15.0 22.2 1.9 15.3 22.2 1.8 15.3 21.6 1.8 16.5 21.6 2.1 16.4 21.6 1.8 16.4 22.2 1.8 16.5 22.2 2.0 16.6 21.6 2.4 16.5 21.6 2.1 16.5 22.2 2.0 16.6 22.2 2.4 15.0 22.2 1.9 15.0 22.6 1.9 15.2 22.8 1.8 15.3 22.8 1.8 15.3 22.2 1.8 15.0 22.6 1.9 15.0 22.8 1.9 15.2 22.8 1.8 16.5 22.2 2.0 16.4 22.2 1.8 16.4 22.8 1.8 16.4 22.8 1.8 16.6 22.2 2.4 16.5 22.2 2.0 16.4 22.8 1.8 16.6 22.8 2.4 15.0 22.8 1.9 15.0 23.4 1.9 15.3 23.4 1.8 15.3 22.9 1.8 15.2 22.8 1.8 15.3 22.8 1.8 15.2 22.8 1.8 15.3 22.9 1.8 16.4 22.8 1.8 16.4 22.8 1.8 16.4 22.8 1.8 16.6 22.8 2.4 16.4 22.8 1.8 16.4 22.8 1.8 16.4 23.4 1.8 16.6 23.4 2.4 15.0 23.4 1.9 15.0 24.0 1.9 15.3 24.0 1.8 15.3 23.4 1.8 16.6 23.4 2.4 16.4 23.4 1.8 16.4 24.0 1.8 16.6 24.0 2.4 15.0 24.0 1.9 15.0 24.0 2.4 15.6 24.0 2.4 15.6 24.0 1.8 15.3 24.0 1.8 15.6 24.0 1.8 15.6 24.0 2.4 16.2 24.0 2.4 16.2 24.0 1.8 16.2 24.0 1.8 16.2 24.0 2.4 16.6 24.0 2.4 16.4 24.0 1.8 15.0 20.0 2.5 15.0 20.0 2.4 15.6 20.0 2.4 15.6 20.0 2.5 15.0 20.0 2.9 15.0 20.0 2.5 15.6 20.0 2.5 15.6 20.0 2.8 15.0 20.4 2.9 15.0 20.0 2.9 15.6 20.0 2.8 15.6 20.4 2.8 15.6 20.0 2.5 15.6 20.0 2.4 16.2 20.0 2.4 16.2 20.0 2.5 15.6 20.0 2.8 15.6 20.0 2.5 16.2 20.0 2.5 16.2 20.0 2.6 15.6 20.4 2.8 15.6 20.0 2.8 16.2 20.0 2.6 16.2 20.4 2.6 16.2 20.0 2.5 16.2 20.0 2.4 16.6 20.0 2.4 16.6 20.0 2.5 16.2 20.0 2.6 16.2 20.0 2.5 16.6 20.0 2.5 16.2 20.4 2.6 16.2 20.0 2.6 16.6 20.0 2.5 16.6 20.4 2.5 16.6 20.0 2.5 16.6 20.3 2.4 16.6 20.4 2.4 16.6 20.4 2.5 16.6 20.0 2.4 16.6 20.3 2.4 16.6 20.0 2.5 15.0 21.0 2.9 15.0 20.4 2.9 15.6 20.4 2.8 15.6 21.0 2.8 15.6 21.0 2.8 15.6 20.4 2.8 16.2 20.4 2.6 16.2 21.0 2.6 16.2 21.0 2.6 16.2 20.4 2.6 16.6 20.4 2.5 16.6 21.0 2.5 16.6 20.4 2.5 16.6 20.4 2.4 16.6 21.0 2.4 16.6 21.0 2.5 15.0 21.6 2.9 15.0 21.0 2.9 15.6 21.0 2.8 15.6 21.6 2.8 15.6 21.6 2.8 15.6 21.0 2.8 16.2 21.0 2.6 16.2 21.6 2.6 16.2 21.6 2.6 16.2 21.0 2.6 16.6 21.0 2.5 16.6 21.6 2.5 16.6 21.0 2.5 16.6 21.0 2.4 16.6 21.6 2.4 16.6 21.6 2.5 15.0 22.2 2.9 15.0 21.6 2.9 15.6 21.6 2.8 15.6 22.2 2.8 15.6 22.2 2.8 15.6 21.6 2.8 16.2 21.6 2.6 16.2 22.2 2.6 16.2 22.2 2.6 16.2 21.6 2.6 16.6 21.6 2.5 16.6 22.2 2.5 16.6 21.6 2.5 16.6 21.6 2.4 16.6 22.2 2.4 16.6 22.2 2.5 15.0 22.3 2.9 15.0 22.2 2.9 15.6 22.2 2.8 15.6 22.8 2.8 15.5 22.8 2.8 15.0 22.8 2.9 15.0 22.3 2.9 15.5 22.8 2.8 15.6 22.8 2.8 15.6 22.2 2.8 16.2 22.2 2.6 16.2 22.8 2.6 16.2 22.8 2.6 16.2 22.2 2.6 16.6 22.2 2.5 16.6 22.8 2.5 16.6 22.2 2.5 16.6 22.2 2.4 16.6 22.8 2.4 16.6 22.8 2.5 15.0 23.4 2.9 15.0 22.8 2.9 15.5 22.8 2.8 15.6 22.9 2.8 15.6 23.4 2.8 15.5 22.8 2.8 15.6 22.8 2.8 15.6 22.9 2.8 15.6 22.9 2.8 15.6 22.8 2.8 16.2 22.8 2.6 16.2 23.4 2.6 16.0 23.4 2.6 15.6 23.4 2.8 15.6 22.9 2.8 16.0 23.4 2.6 16.2 23.4 2.6 16.2 22.8 2.6 16.6 22.8 2.5 16.6 23.4 2.5 16.6 22.8 2.5 16.6 22.8 2.4 16.6 23.4 2.4 16.6 23.4 2.5 15.0 24.0 2.9 15.0 23.4 2.9 15.6 23.4 2.8 15.6 24.0 2.8 15.6 24.0 2.8 15.6 23.4 2.8 16.0 23.4 2.6 16.2 23.6 2.6 16.2 24.0 2.6 16.0 23.4 2.6 16.2 23.4 2.6 16.2 23.6 2.6 16.2 23.6 2.6 16.2 23.4 2.6 16.6 23.4 2.5 16.6 24.0 2.5 16.2 24.0 2.6 16.2 23.6 2.6 16.6 24.0 2.5 16.6 23.4 2.5 16.6 23.4 2.4 16.6 24.0 2.4 16.6 24.0 2.5 15.0 24.0 2.4 15.0 24.0 2.5 15.6 24.0 2.5 15.6 24.0 2.4 15.0 24.0 2.5 15.0 24.0 2.9 15.6 24.0 2.8 15.6 24.0 2.5 15.6 24.0 2.4 15.6 24.0 2.5 16.2 24.0 2.5 16.2 24.0 2.4 15.6 24.0 2.5 15.6 24.0 2.8 16.2 24.0 2.6 16.2 24.0 2.5 16.2 24.0 2.4 16.2 24.0 2.5 16.6 24.0 2.5 16.6 24.0 2.4 16.2 24.0 2.5 16.2 24.0 2.6 16.6 24.0 2.5 
        </DataArray>
    </Points>
    <CellData>
        <DataArray type="Float32" Name="water drops AMPUA" format="ascii">
            0.0 0.0 0.0 0.0 0.0 0.0 0.0 0.0 0.0 0.0 0.0 0.0 0.0 0.0 0.0 0.0 0.0 0.0 0.0 0.0 0.0 0.0 0.0 0.0 0.0 0.0 0.0 0.0 0.0 0.0 0.0 0.0 0.0 0.0 0.0 0.0 0.0 0.0 0.0 0.0 0.0 0.0 0.0 0.0 0.0 0.0 0.0 0.0 0.0 0.0 0.0 0.0 0.0 0.0 0.0 0.0 0.0 0.0 0.0 0.0 0.0 0.0 0.0 0.0 0.0 0.0 0.0 0.0 0.0 0.0 0.0 0.0 0.0 0.0 0.0 0.0 0.0 0.0 0.0 0.0 0.0 0.0 0.0 0.0 0.0 0.0 0.0 0.0 0.0 0.0 0.0 0.0 0.0 0.0 0.0 0.0 0.0 0.0 0.0 0.0 0.0 0.0 0.0 0.0 0.0 0.0 0.0 0.0 0.0 0.0 0.0 0.0 0.0 0.0 0.0 0.0 0.0 0.0 0.0 0.0 0.0 0.0 0.0 0.0 0.0 0.0 0.0 0.0 0.0 0.0 0.0 0.0 0.0 0.0 0.0 0.0 0.0 0.0 0.0 0.0 0.0 0.0 0.0 0.0 0.0 0.0 0.0 0.0 0.0 0.0 0.0 0.0 0.0 0.0 0.0 0.0 0.0 0.0 0.0 0.0 0.0 0.0 0.0 0.0 0.0 0.0 0.0 0.0 0.0 0.0 0.0 0.0 0.0 0.0 0.0 0.0 0.0 0.0 0.0 0.0 0.0 0.0 0.0 0.0 0.0 0.0 0.0 0.0 0.0 0.0 0.0 0.0 0.0 0.0 0.0 0.0 0.0 0.0 0.0 0.0 0.0 0.0 0.0 0.0 0.0 0.0 0.0 0.0 0.0 0.0 0.0 0.0 0.0 0.0 0.0 0.0 0.0 0.0 0.0 0.0 0.0 0.0 
         </DataArray>
        <DataArray type="Float32" Name="WALL TEMPERATURE" format="ascii">
            110.8 39.0 39.0 131.6 131.6 41.4 41.4 153.4 153.4 57.5 57.5 68.6 68.6 27.3 27.3 30.5 30.5 46.4 46.4 52.2 52.2 26.0 26.0 28.6 28.6 41.0 41.0 45.3 45.3 25.1 25.1 27.1 27.1 37.0 37.0 40.0 40.0 24.3 24.3 26.0 26.0 33.8 33.8 35.9 35.9 23.1 23.1 23.7 23.7 24.1 24.1 24.1 24.0 31.2 31.2 32.7 32.7 32.7 32.7 23.1 23.1 23.4 23.4 23.4 24.2 29.2 29.2 23.8 30.1 30.1 30.1 20.4 20.4 20.4 20.5 20.5 106.2 106.2 106.2 38.6 38.6 83.8 83.8 142.6 142.6 66.8 66.8 66.8 66.7 26.1 26.1 37.2 37.2 36.8 36.8 25.0 25.0 33.5 33.5 33.2 33.2 24.2 24.2 30.7 30.7 30.5 30.5 23.6 23.6 23.6 23.6 28.5 28.5 28.4 28.4 23.1 23.1 23.1 23.1 26.8 26.7 26.7 26.7 22.6 22.6 25.4 25.4 20.4 20.4 20.4 20.4 20.4 20.5 20.5 97.9 97.9 97.9 97.9 41.7 41.7 114.2 114.2 114.2 114.2 42.9 42.9 129.9 129.9 129.9 46.5 46.5 63.5 63.5 63.5 27.3 27.3 29.5 29.5 38.1 38.1 50.1 50.1 26.2 26.2 28.0 28.0 34.5 34.5 44.0 44.0 25.4 25.4 26.8 26.8 31.9 31.9 39.4 39.4 24.7 24.7 24.7 23.8 25.9 25.9 29.9 29.9 35.7 35.7 24.0 24.0 24.0 24.1 25.4 25.4 25.4 25.1 28.3 28.3 32.8 32.8 23.5 23.5 24.4 24.4 24.4 24.7 27.1 27.1 27.1 30.6 30.6 20.5 20.5 20.5 20.5 20.5 20.5 20.5 20.5 20.5 20.5 20.5 
         </DataArray>
        <DataArray type="Float32" Name="HRRPUA" format="ascii">
            0.0 0.0 0.0 0.0 0.0 0.0 0.0 0.0 0.0 0.0 0.0 0.0 0.0 0.0 0.0 0.0 0.0 0.0 0.0 0.0 0.0 0.0 0.0 0.0 0.0 0.0 0.0 0.0 0.0 0.0 0.0 0.0 0.0 0.0 0.0 0.0 0.0 0.0 0.0 0.0 0.0 0.0 0.0 0.0 0.0 0.0 0.0 0.0 0.0 0.0 0.0 0.0 0.0 0.0 0.0 0.0 0.0 0.0 0.0 0.0 0.0 0.0 0.0 0.0 0.0 0.0 0.0 0.0 0.0 0.0 0.0 0.0 0.0 0.0 0.0 0.0 0.0 0.0 0.0 0.0 0.0 0.0 0.0 0.0 0.0 0.0 0.0 0.0 0.0 0.0 0.0 0.0 0.0 0.0 0.0 0.0 0.0 0.0 0.0 0.0 0.0 0.0 0.0 0.0 0.0 0.0 0.0 0.0 0.0 0.0 0.0 0.0 0.0 0.0 0.0 0.0 0.0 0.0 0.0 0.0 0.0 0.0 0.0 0.0 0.0 0.0 0.0 0.0 0.0 0.0 0.0 0.0 0.0 0.0 0.0 0.0 0.0 0.0 0.0 0.0 0.0 0.0 0.0 0.0 0.0 0.0 0.0 0.0 0.0 0.0 0.0 0.0 0.0 0.0 0.0 0.0 0.0 0.0 0.0 0.0 0.0 0.0 0.0 0.0 0.0 0.0 0.0 0.0 0.0 0.0 0.0 0.0 0.0 0.0 0.0 0.0 0.0 0.0 0.0 0.0 0.0 0.0 0.0 0.0 0.0 0.0 0.0 0.0 0.0 0.0 0.0 0.0 0.0 0.0 0.0 0.0 0.0 0.0 0.0 0.0 0.0 0.0 0.0 0.0 0.0 0.0 0.0 0.0 0.0 0.0 0.0 0.0 0.0 0.0 0.0 0.0 0.0 0.0 0.0 0.0 0.0 0.0 
         </DataArray>
        <DataArray type="Float32" Name="GAS TEMPERATURE" format="ascii">
            22.3 22.3 22.3 22.6 22.6 22.6 22.6 23.2 23.2 23.2 23.2 23.2 23.2 21.8 21.8 22.0 22.0 22.8 22.8 22.8 22.8 21.4 21.4 21.8 21.8 22.6 22.6 22.6 22.6 21.2 21.2 21.8 21.8 22.1 22.1 22.1 22.1 21.2 21.2 22.0 22.0 21.5 21.5 21.5 21.5 21.1 21.1 21.1 21.1 21.0 21.0 21.0 21.0 20.8 20.8 20.8 20.8 20.8 20.8 20.8 20.8 20.5 20.5 20.5 20.5 20.5 20.5 20.5 20.5 20.5 20.5 20.3 20.3 20.3 20.4 20.4 23.1 23.1 23.1 23.1 23.1 23.8 23.8 23.9 23.9 23.9 23.9 23.9 23.9 21.8 21.8 22.0 22.0 22.0 22.0 21.4 21.4 21.6 21.6 21.6 21.6 21.2 21.2 21.3 21.3 21.3 21.3 21.2 21.2 21.2 21.2 21.0 21.0 21.0 21.0 21.1 21.1 21.1 21.1 20.8 20.8 20.8 20.8 20.8 20.8 20.6 20.6 20.3 20.3 20.3 20.3 20.3 20.4 20.4 24.5 24.5 24.5 24.5 24.5 24.5 25.6 25.6 25.6 25.6 25.6 25.6 25.1 25.1 25.1 25.1 25.1 25.1 25.1 25.1 22.1 22.1 23.2 23.2 23.7 23.7 23.7 23.7 21.8 21.8 22.6 22.6 23.0 23.0 23.0 23.0 21.8 21.8 22.5 22.5 22.1 22.1 22.1 22.1 21.4 21.4 21.4 21.4 21.4 21.4 21.3 21.3 21.3 21.3 20.8 20.8 20.8 20.8 20.8 20.8 20.8 20.8 20.8 20.8 20.8 20.8 20.5 20.5 20.5 20.5 20.5 20.5 20.6 20.6 20.6 20.6 20.6 20.3 20.3 20.3 20.3 20.4 20.4 20.4 20.4 20.5 20.5 20.5 
         </DataArray>
    </CellData>
    <Polys>
        <DataArray type="Int32" Name="connectivity" format="ascii">
            0 1 2 3 4 5 3 5 6 7 8 9 7 9 10 11 12 13 11 13 14 15 16 17 15 17 18 19 20 21 19 21 22 23 24 25 23 25 26 27 28 29 27 29 30 31 32 33 31 33 34 35 36 37 35 37 38 39 40 41 39 41 42 43 44 45 43 45 46 47 48 49 47 49 50 51 52 53 51 53 54 55 56 57 55 57 58 59 60 61 59 61 62 63 64 65 63 65 66 67 68 69 67 69 70 71 72 73 71 73 74 75 76 77 75 77 78 79 80 81 79 81 82 83 84 85 83 85 86 87 88 89 87 89 90 91 92 93 91 93 94 95 96 97 95 97 98 99 100 101 99 101 102 99 102 103 104 105 106 107 108 109 107 109 110 111 112 113 111 113 114 111 114 115 116 117 118 119 120 121 119 121 122 123 124 125 123 125 126 123 126 127 128 129 130 131 132 133 131 133 134 135 136 137 138 139 140 141 142 143 141 143 144 145 146 147 148 149 150 148 150 151 152 153 154 152 154 155 156 157 158 156 158 159 156 159 160 161 162 163 161 163 164 165 166 167 165 167 168 169 170 171 169 171 172 173 174 175 173 175 176 173 176 177 178 179 180 181 182 183 181 183 184 185 186 187 185 187 188 189 190 191 189 191 192 193 194 195 193 195 196 197 198 199 197 199 200 201 202 203 201 203 204 205 206 207 205 207 208 209 210 211 209 211 212 213 214 215 213 215 216 217 218 219 217 219 220 217 220 221 222 223 224 225 226 227 225 227 228 229 230 231 229 231 232 233 234 235 233 235 236 233 236 237 238 239 240 241 242 243 244 245 246 244 246 247 244 247 248 249 250 251 249 251 252 253 254 255 253 255 256 257 258 259 257 259 260 257 260 261 262 263 264 262 264 265 266 267 268 266 268 269 270 271 272 270 272 273 274 275 276 274 276 277 278 279 280 278 280 281 282 283 284 282 284 285 286 287 288 286 288 289 290 291 292 290 292 293 294 295 296 294 296 297 298 299 300 301 302 303 301 303 304 305 306 307 305 307 308 309 310 311 312 313 314 312 314 315 316 317 318 316 318 319 320 321 322 320 322 323 324 325 326 324 326 327 328 329 330 328 330 331 332 333 334 332 334 335 336 337 338 336 338 339 340 341 342 340 342 343 344 345 346 344 346 347 348 349 350 348 350 351 352 353 354 352 354 355 356 357 358 356 358 359 360 361 362 360 362 363 360 363 364 365 366 367 368 369 370 368 370 371 372 373 374 372 374 375 376 377 378 376 378 379 380 381 382 380 382 383 380 383 384 385 386 387 388 389 390 388 390 391 388 391 392 393 394 395 396 397 398 396 398 399 400 401 402 400 402 403 404 405 406 404 406 407 408 409 410 408 410 411 408 411 412 413 414 415 416 417 418 416 418 419 420 421 422 423 424 425 423 425 426 427 428 429 427 429 430 431 432 433 431 433 434 435 436 437 435 437 438 439 440 441 439 441 442 443 444 445 443 445 446 447 448 449 
        </DataArray>
        <DataArray type="Int32" Name="offsets" format="ascii">
            3 6 9 12 15 18 21 24 27 30 33 36 39 42 45 48 51 54 57 60 63 66 69 72 75 78 81 84 87 90 93 96 99 102 105 108 111 114 117 120 123 126 129 132 135 138 141 144 147 150 153 156 159 162 165 168 171 174 177 180 183 186 189 192 195 198 201 204 207 210 213 216 219 222 225 228 231 234 237 240 243 246 249 252 255 258 261 264 267 270 273 276 279 282 285 288 291 294 297 300 303 306 309 312 315 318 321 324 327 330 333 336 339 342 345 348 351 354 357 360 363 366 369 372 375 378 381 384 387 390 393 396 399 402 405 408 411 414 417 420 423 426 429 432 435 438 441 444 447 450 453 456 459 462 465 468 471 474 477 480 483 486 489 492 495 498 501 504 507 510 513 516 519 522 525 528 531 534 537 540 543 546 549 552 555 558 561 564 567 570 573 576 579 582 585 588 591 594 597 600 603 606 609 612 615 618 621 624 627 630 633 636 639 642 645 648 651 654 657 660 663 666 
        </DataArray>
    </Polys>
</Piece>
</PolyData>
</VTKFile>