<?xml version="1.0"?>
<VTKFile type="RectilinearGrid" version="1.0" byte_order="LittleEndian" header_type="UInt64">
<RectilinearGrid WholeExtent="25 50 0 25 0 15">
<Piece Extent="25 50 0 25 0 15">
<Coordinates>
<DataArray type="Float64" Name="Array X-Axis" format="ascii" RangeMin="15.0" RangeMax="30.0">
15.0 15.6 16.2 16.8 17.4 18.0 18.6 19.2 19.8 20.4 21.0 21.6 22.2 22.8 23.4 24.0 24.6 25.2 25.8 26.4 27.0 27.6 28.2 28.8 29.4 30.0 
</DataArray>
<DataArray type="Float64" Name="Array Y-Axis" format="ascii" RangeMin="0.0" RangeMax="15.0">
0.0 0.6 1.2 1.8 2.4 3.0 3.6 4.2 4.8 5.4 6.0 6.6 7.2 7.8 8.4 9.0 9.6 10.2 10.8 11.4 12.0 12.6 13.2 13.8 14.4 15.0 
</DataArray>
<DataArray type="Float64" Name="Array Z-Axis" format="ascii" RangeMin="0.0" RangeMax="9.0">
0.0 0.6 1.2 1.8 2.4 3.0 3.6 4.2 4.8 5.4 6.0 6.6 7.2 7.8 8.4 9.0 
</DataArray>
</Coordinates>
<PointData>
<DataArray Name="SOOT DENSITY" NumberOfComponents="1" type="UInt8" format="ascii">
0 0 0 0 0 0 0 0 0 0 0 0 0 0 0 0 0 0 0 0 0 0 0 0 0 0 0 0 0 0 0 0 0 0 0 0 0 0 0 0 0 0 0 0 0 0 0 0 0 0 0 0 0 0 0 0 0 0 0 0 0 0 0 0 0 0 0 0 0 0 0 0 0 0 0 0 0 0 0 0 0 0 0 0 0 0 0 0 0 0 0 0 0 0 0 0 0 0 0 0 0 0 0 0 0 0 0 0 0 0 0 0 0 0 0 0 0 0 0 0 0 0 0 0 0 0 0 0 0 0 0 0 0 0 0 0 0 0 0 0 0 0 0 0 0 0 0 0 0 0 0 0 0 0 0 0 0 0 0 0 0 0 0 0 0 0 0 0 0 0 0 0 0 0 0 0 0 0 0 0 0 0 0 0 0 0 0 0 0 0 0 0 0 0 0 0 0 0 0 0 0 0 0 0 0 0 0 0 0 0 0 0 0 0 0 0 0 0 0 0 0 0 0 0 0 0 0 0 0 0 0 0 0 0 0 0 0 0 0 0 0 0 0 0 0 0 0 0 0 0 0 0 0 0 0 0 0 0 0 0 0 0 0 0 0 0 0 0 0 0 0 0 0 0 0 0 0 0 0 0 0 0 0 0 0 0 0 0 0 0 0 0 0 0 0 0 0 0 0 0 0 0 0 0 0 0 0 0 0 0 0 0 0 0 0 0 0 0 0 0 0 0 0 0 0 0 0 0 0 0 0 0 0 0 0 0 0 0 0 0 0 0 0 0 0 0 0 0 0 0 0 0 0 0 0 0 0 0 0 0 0 0 0 0 0 0 0 0 0 0 0 0 0 0 0 0 0 0 0 0 0 0 0 0 0 0 0 0 0 0 0 0 0 0 0 0 0 0 0 0 0 0 0 0 0 0 0 0 0 0 0 0 0 0 0 0 0 0 0 0 0 0 0 0 0 0 0 0 0 0 0 0 0 0 0 0 0 0 0 0 0 0 0 0 0 0 0 0 0 0 0 0 0 0 0 0 0 0 0 0 0 0 0 0 0 0 0 0 0 0 0 1 1 1 1 0 0 0 0 0 0 0 0 0 0 0 0 0 0 0 0 0 0 0 0 0 0 2 6 16 19 10 3 0 0 0 0 0 0 0 0 0 0 0 0 0 0 0 0 0 0 0 1 7 10 15 19 12 6 0 0 0 0 0 0 0 0 0 0 0 0 0 0 0 0 0 0 0 2 13 12 0 0 7 8 1 0 0 0 0 0 0 0 0 0 0 0 0 0 0 0 0 0 0 2 13 11 0 0 8 9 1 0 0 0 0 0 0 0 0 0 0 0 0 0 0 0 0 0 0 3 10 12 11 11 11 7 1 0 0 0 0 0 0 0 0 0 0 0 0 0 0 0 0 0 0 2 6 9 12 12 9 4 0 0 0 0 0 0 0 0 0 0 0 0 0 0 0 0 0 0 0 0 1 1 1 2 1 0 0 0 0 0 0 0 0 0 0 0 0 0 0 0 0 0 0 0 0 0 0 0 0 0 0 0 0 0 0 0 0 0 0 0 0 0 0 0 0 0 0 0 0 0 0 0 0 0 0 0 0 0 0 0 0 0 0 0 0 0 0 0 0 0 0 0 0 0 0 0 0 0 0 0 0 0 0 0 0 0 0 0 0 0 0 0 0 0 0 0 0 0 0 0 0 0 0 0 0 0 0 0 0 0 0 0 0 0 0 0 0 0 0 0 0 0 0 0 0 0 0 0 0 0 0 0 0 0 0 0 0 0 0 0 0 0 0 0 0 0 0 0 0 0 0 0 0 0 0 0 0 0 0 0 0 0 0 0 0 0 0 0 0 0 0 0 0 0 0 0 0 0 0 0 0 0 0 0 0 0 0 0 0 0 0 0 0 0 0 0 0 0 0 0 0 0 0 0 0 0 0 0 0 0 0 0 0 0 0 0 0 0 0 0 0 0 0 0 0 0 0 0 0 0 0 0 0 0 0 0 0 0 0 0 0 0 0 0 0 0 0 0 0 0 0 0 0 0 0 0 0 0 0 0 0 0 0 0 0 0 0 0 0 0 0 0 0 0 0 0 0 0 0 0 0 0 0 0 0 0 0 0 0 0 0 0 0 0 0 0 0 0 0 0 0 0 0 0 0 0 0 0 0 0 0 0 0 0 0 0 0 0 0 0 0 0 0 0 0 0 0 0 0 0 0 0 0 0 0 0 0 0 0 0 0 0 0 0 0 0 0 0 0 0 0 0 0 0 0 0 0 0 0 0 0 0 0 0 0 0 0 0 0 0 0 0 0 0 0 0 0 0 0 0 0 0 0 0 0 0 0 0 0 0 0 0 0 0 0 0 0 0 0 0 0 0 0 0 0 0 0 0 0 0 0 0 0 0 0 0 0 0 0 0 0 0 0 0 0 0 0 0 0 0 0 0 0 0 0 0 0 0 0 0 0 0 0 0 0 0 0 0 0 0 0 0 0 0 0 0 0 0 0 0 0 0 0 0 0 0 0 0 1 1 0 0 0 0 0 0 0 0 0 0 0 0 0 0 0 0 0 0 0 0 0 0 0 1 8 9 4 5 3 0 0 0 0 0 0 0 0 0 0 0 0 0 0 0 0 0 0 0 0 3 22 36 61 63 26 7 1 0 0 0 0 0 0 0 0 0 0 0 0 0 0 0 0 0 1 6 41 109 186 181 91 31 5 0 0 0 0 0 0 0 0 0 0 0 0 0 0 0 0 0 1 13 89 215 240 226 167 76 12 0 0 0 0 0 0 0 0 0 0 0 0 0 0 0 0 0 2 15 91 220 239 220 169 69 10 0 0 0 0 0 0 0 0 0 0 0 0 0 0 0 0 0 4 16 58 148 184 162 98 24 2 0 0 0 0 0 0 0 0 0 0 0 0 0 0 0 0 0 3 12 42 72 76 59 33 10 1 0 0 0 0 0 0 0 0 0 0 0 0 0 0 0 0 0 0 2 13 16 10 9 5 1 0 0 0 0 0 0 0 0 0 0 0 0 0 0 0 0 0 0 0 0 0 0 0 0 0 0 0 0 0 0 0 0 0 0 0 0 0 0 0 0 0 0 0 0 0 0 0 0 0 0 0 0 0 0 0 0 0 0 0 0 0 0 0 0 0 0 0 0 0 0 0 0 0 0 0 0 0 0 0 0 0 0 0 0 0 0 0 0 0 0 0 0 0 0 0 0 0 0 0 0 0 0 0 0 0 0 0 0 0 0 0 0 0 0 0 0 0 0 0 0 0 0 0 0 0 0 0 0 0 0 0 0 0 0 0 0 0 0 0 0 0 0 0 0 0 0 0 0 0 0 0 0 0 0 0 0 0 0 0 0 0 0 0 0 0 0 0 0 0 0 0 0 0 0 0 0 0 0 0 0 0 0 0 0 0 0 0 0 0 0 0 0 0 0 0 0 0 0 0 0 0 0 0 0 0 0 0 0 0 0 0 0 0 0 0 0 0 0 0 0 0 0 0 0 0 0 0 0 0 0 0 0 0 0 0 0 0 0 0 0 0 0 0 0 0 0 0 0 0 0 0 0 0 0 0 0 0 0 0 0 0 0 0 0 0 0 0 0 0 0 0 0 0 0 0 0 0 0 0 0 0 0 0 0 0 0 0 0 0 0 0 0 0 0 0 0 0 0 0 0 0 0 0 0 0 0 0 0 0 0 0 0 0 0 0 0 0 0 0 0 0 0 0 0 0 0 0 0 0 0 0 0 0 0 0 0 0 0 0 0 0 0 0 0 0 0 0 0 0 0 0 0 0 0 0 0 0 0 0 0 0 0 0 0 0 0 0 0 0 0 0 0 0 0 0 0 0 0 0 0 0 0 0 0 0 0 0 0 0 0 0 0 0 0 0 0 0 0 0 0 0 0 0 0 0 0 0 0 0 0 0 0 0 0 0 0 0 0 0 0 0 0 0 0 0 0 0 0 0 0 0 0 0 0 0 0 0 0 0 0 0 0 0 0 0 0 0 0 0 0 0 0 0 0 0 0 0 0 0 0 0 0 5 5 2 3 3 0 0 0 0 0 0 0 0 0 0 0 0 0 0 0 0 0 0 0 2 7 38 41 21 30 24 8 0 0 0 0 0 0 0 0 0 0 0 0 0 0 0 0 0 1 5 19 97 132 157 170 131 71 16 0 0 0 0 0 0 0 0 0 0 0 0 0 0 0 0 2 14 59 165 226 248 249 232 170 50 1 0 0 0 0 0 0 0 0 0 0 0 0 0 0 0 2 18 110 220 252 254 253 245 184 50 1 0 0 0 0 0 0 0 0 0 0 0 0 0 0 0 1 15 107 218 252 253 250 231 126 22 1 0 0 0 0 0 0 0 0 0 0 0 0 0 0 0 1 13 63 170 235 242 224 165 55 7 0 0 0 0 0 0 0 0 0 0 0 0 0 0 0 0 0 4 27 113 168 156 105 49 13 1 0 0 0 0 0 0 0 0 0 0 0 0 0 0 0 0 0 0 5 36 47 28 19 10 2 0 0 0 0 0 0 0 0 0 0 0 0 0 0 0 0 0 0 0 0 0 0 0 0 0 0 0 0 0 0 0 0 0 0 0 0 0 0 0 0 0 0 0 0 0 0 0 0 0 0 0 0 0 0 0 0 0 0 0 0 0 0 0 0 0 0 0 0 0 0 0 0 0 0 0 0 0 0 0 0 0 0 0 0 0 0 0 0 0 0 0 0 0 0 0 0 0 0 0 0 0 0 0 0 0 0 0 0 0 0 0 0 0 0 0 0 0 0 0 0 0 0 0 0 0 0 0 0 0 0 0 0 0 0 0 0 0 0 0 0 0 0 0 0 0 0 0 0 0 0 0 0 0 0 0 0 0 0 0 0 0 0 0 0 0 0 0 0 0 0 0 0 0 0 0 0 0 0 0 0 0 0 0 0 0 0 0 0 0 0 0 0 0 0 0 0 0 0 0 0 0 0 0 0 0 0 0 0 0 0 0 0 0 0 0 0 0 0 0 0 0 0 0 0 0 0 0 0 0 0 0 0 0 0 0 0 0 0 0 0 0 0 0 0 0 0 0 0 0 0 0 0 0 0 0 0 0 0 0 0 0 0 0 0 0 0 0 0 0 0 0 0 0 0 0 0 0 0 0 0 0 0 0 0 0 0 0 0 0 0 0 0 0 0 0 0 0 0 0 0 0 0 0 0 0 0 0 0 0 0 0 0 0 0 0 0 0 0 0 0 0 0 0 0 0 0 0 0 0 0 0 0 0 0 0 0 0 0 0 0 0 0 0 0 0 0 0 0 0 0 0 0 0 0 0 0 0 0 0 0 0 0 0 0 0 0 0 0 0 0 0 0 0 0 0 0 0 0 0 0 0 0 0 0 0 0 0 0 0 0 0 0 0 0 0 0 0 0 0 0 0 0 0 0 0 0 0 0 0 0 0 0 0 0 0 0 0 0 0 0 0 0 0 0 0 0 0 0 0 0 0 0 0 0 0 1 1 0 0 0 0 0 0 0 0 0 0 0 0 0 0 0 0 0 0 0 0 0 0 0 1 5 10 7 0 5 3 0 0 0 0 0 0 0 0 0 0 0 0 0 0 0 0 0 0 3 18 42 61 48 0 53 44 17 2 0 0 0 0 0 0 0 0 0 0 0 0 0 0 0 0 17 62 112 154 168 0 220 198 121 25 0 0 0 0 0 0 0 0 0 0 0 0 0 0 0 0 22 92 191 237 247 0 253 250 217 66 2 0 0 0 0 0 0 0 0 0 0 0 0 0 0 0 11 92 227 252 254 0 253 251 213 63 2 0 0 0 0 0 0 0 0 0 0 0 0 0 0 0 6 73 220 252 254 0 249 237 161 40 2 0 0 0 0 0 0 0 0 0 0 0 0 0 0 0 5 35 154 235 249 0 228 199 126 27 1 0 0 0 0 0 0 0 0 0 0 0 0 0 0 0 1 6 47 163 206 185 127 84 48 7 0 0 0 0 0 0 0 0 0 0 0 0 0 0 0 0 0 0 6 50 68 44 32 26 14 1 0 0 0 0 0 0 0 0 0 0 0 0 0 0 0 0 0 0 0 0 0 0 0 0 0 0 0 0 0 0 0 0 0 0 0 0 0 0 0 0 0 0 0 0 0 0 0 0 0 0 0 0 0 0 0 0 0 0 0 0 0 0 0 0 0 0 0 0 0 0 0 0 0 0 0 0 0 0 0 0 0 0 0 0 0 0 0 0 0 0 0 0 0 0 0 0 0 0 0 0 0 0 0 0 0 0 0 0 0 0 0 0 0 0 0 0 0 0 0 0 0 0 0 0 0 0 0 0 0 0 0 0 0 0 0 0 0 0 0 0 0 0 0 0 0 0 0 0 0 0 0 0 0 0 0 0 0 0 0 0 0 0 0 0 0 0 0 0 0 0 0 0 0 0 0 0 0 0 0 0 0 0 0 0 0 0 0 0 0 0 0 0 0 0 0 0 0 0 0 0 0 0 0 0 0 0 0 0 0 0 0 0 0 0 0 0 0 0 0 0 0 0 0 0 0 0 0 0 0 0 0 0 0 0 0 0 0 0 0 0 0 0 0 0 0 0 0 0 0 0 0 0 0 0 0 0 0 0 0 0 0 0 0 0 0 0 0 0 0 0 0 0 0 0 0 0 0 0 0 0 0 0 0 0 0 0 0 0 0 0 0 0 0 0 0 0 0 0 0 0 0 0 0 0 0 0 0 0 0 0 0 0 0 0 0 0 0 0 0 0 0 0 0 0 0 0 0 0 0 0 0 0 0 0 0 0 0 0 0 0 0 0 0 0 0 0 0 0 0 0 0 0 0 0 0 0 0 0 0 0 0 0 0 0 0 0 0 0 0 0 0 0 0 0 0 0 0 0 0 0 0 0 0 0 0 0 0 0 0 0 0 0 0 0 0 0 0 0 0 0 0 0 0 0 0 0 0 1 1 1 0 0 0 0 0 0 0 0 0 0 0 0 0 0 0 0 0 0 0 0 0 0 0 3 5 3 1 0 0 0 0 0 0 0 0 0 0 0 0 0 0 0 0 0 0 0 0 0 1 8 14 12 0 0 0 2 1 0 0 0 0 0 0 0 0 0 0 0 0 0 0 0 0 0 19 53 75 59 0 0 0 31 15 3 0 0 0 0 0 0 0 0 0 0 0 0 0 0 0 0 95 167 196 180 0 0 0 182 101 13 0 0 0 0 0 0 0 0 0 0 0 0 0 0 0 0 131 218 246 250 0 0 0 248 198 30 1 0 0 0 0 0 0 0 0 0 0 0 0 0 0 0 85 213 252 254 0 0 0 248 195 38 2 0 0 0 0 0 0 0 0 0 0 0 0 0 0 0 41 193 251 254 0 0 0 233 170 46 3 0 0 0 0 0 0 0 0 0 0 0 0 0 0 0 26 147 232 249 0 0 0 215 168 39 2 0 0 0 0 0 0 0 0 0 0 0 0 0 0 0 4 42 111 196 211 176 139 141 106 15 1 0 0 0 0 0 0 0 0 0 0 0 0 0 0 0 0 3 13 69 84 51 52 67 44 3 0 0 0 0 0 0 0 0 0 0 0 0 0 0 0 0 0 0 0 0 0 0 0 0 0 0 0 0 0 0 0 0 0 0 0 0 0 0 0 0 0 0 0 0 0 0 0 0 0 0 0 0 0 0 0 0 0 0 0 0 0 0 0 0 0 0 0 0 0 0 0 0 0 0 0 0 0 0 0 0 0 0 0 0 0 0 0 0 0 0 0 0 0 0 0 0 0 0 0 0 0 0 0 0 0 0 0 0 0 0 0 0 0 0 0 0 0 0 0 0 0 0 0 0 0 0 0 0 0 0 0 0 0 0 0 0 0 0 0 0 0 0 0 0 0 0 0 0 0 0 0 0 0 0 0 0 0 0 0 0 0 0 0 0 0 0 0 0 0 0 0 0 0 0 0 0 0 0 0 0 0 0 0 0 0 0 0 0 0 0 0 0 0 0 0 0 0 0 0 0 0 0 0 0 0 0 0 0 0 0 0 0 0 0 0 0 0 0 0 0 0 0 0 0 0 0 0 0 0 0 0 0 0 0 0 0 0 0 0 0 0 0 0 0 0 0 0 0 0 0 0 0 0 0 0 0 0 0 0 0 0 0 0 0 0 0 0 0 0 0 0 0 0 0 0 0 0 0 0 0 0 0 0 0 0 0 0 0 0 0 0 0 0 0 0 0 0 0 0 0 0 0 0 0 0 0 0 0 0 0 0 0 0 0 0 0 0 0 0 0 0 0 0 0 0 0 0 0 0 0 0 0 0 0 0 0 0 0 0 0 0 0 0 0 0 0 0 0 0 0 0 0 0 0 0 0 0 0 0 0 0 0 0 0 0 0 0 0 0 0 0 0 0 0 0 0 0 0 0 0 0 0 0 0 0 0 0 0 0 0 0 0 0 0 0 0 0 0 0 0 0 0 0 0 0 0 0 1 2 1 0 0 0 0 0 0 0 0 0 0 0 0 0 0 0 0 0 0 0 0 0 0 1 6 7 3 1 0 0 0 0 0 0 0 0 0 0 0 0 0 0 0 0 0 0 0 0 0 10 22 22 0 0 0 1 1 0 0 0 0 0 0 0 0 0 0 0 0 0 0 0 0 0 0 77 121 101 0 0 0 15 14 9 2 0 0 0 0 0 0 0 0 0 0 0 0 0 0 0 0 184 230 227 0 0 0 123 108 57 7 1 0 0 0 0 0 0 0 0 0 0 0 0 0 0 0 221 250 253 0 0 0 243 230 144 15 2 0 0 0 0 0 0 0 0 0 0 0 0 0 0 0 198 250 254 0 0 0 249 238 148 23 3 0 0 0 0 0 0 0 0 0 0 0 0 0 0 0 156 245 254 0 0 0 240 222 147 37 3 0 0 0 0 0 0 0 0 0 0 0 0 0 0 0 111 224 249 0 0 0 219 216 176 53 3 0 0 0 0 0 0 0 0 0 0 0 0 0 0 0 17 96 174 213 207 160 154 185 156 37 2 0 0 0 0 0 0 0 0 0 0 0 0 0 0 0 1 7 27 86 93 57 81 117 81 7 0 0 0 0 0 0 0 0 0 0 0 0 0 0 0 0 0 0 0 0 0 0 0 0 0 0 0 0 0 0 0 0 0 0 0 0 0 0 0 0 0 0 0 0 0 0 0 0 0 0 0 0 0 0 0 0 0 0 0 0 0 0 0 0 0 0 0 0 0 0 0 0 0 0 0 0 0 0 0 0 0 0 0 0 0 0 0 0 0 0 0 0 0 0 0 0 0 0 0 0 0 0 0 0 0 0 0 0 0 0 0 0 0 0 0 0 0 0 0 0 0 0 0 0 0 0 0 0 0 0 0 0 0 0 0 0 0 0 0 0 0 0 0 0 0 0 0 0 0 0 0 0 0 0 0 0 0 0 0 0 0 0 0 0 0 0 0 0 0 0 0 0 0 0 0 0 0 0 0 0 0 0 0 0 0 0 0 0 0 0 0 0 0 0 0 0 0 0 0 0 0 0 0 0 0 0 0 0 0 0 0 0 0 0 0 0 0 0 0 0 0 0 0 0 0 0 0 0 0 0 0 0 0 0 0 0 0 0 0 0 0 0 0 0 0 0 0 0 0 0 0 0 0 0 0 0 0 0 0 0 0 0 0 0 0 0 0 0 0 0 0 0 0 0 0 0 0 0 0 0 0 0 0 0 0 0 0 0 0 0 0 0 0 0 0 0 0 0 0 0 0 0 0 0 0 0 0 0 0 0 0 0 0 0 0 0 0 0 0 0 0 0 0 0 0 0 0 0 0 0 0 0 0 0 0 0 0 0 0 0 0 0 0 0 0 0 0 0 0 0 0 0 0 0 0 0 0 0 0 0 0 0 0 0 0 0 0 0 0 0 0 0 0 0 0 0 0 0 0 0 0 0 0 0 0 0 0 0 0 0 0 0 0 0 0 0 0 0 0 0 0 0 0 0 0 0 0 1 1 0 0 0 0 0 0 0 0 0 0 0 0 0 0 0 0 0 0 0 0 0 0 0 2 6 6 2 1 0 0 0 0 0 0 0 0 0 0 0 0 0 0 0 0 0 0 0 0 0 35 38 0 0 0 1 1 1 0 0 0 0 0 0 0 0 0 0 0 0 0 0 0 0 0 0 161 170 0 0 0 10 9 10 7 1 0 0 0 0 0 0 0 0 0 0 0 0 0 0 0 0 234 245 0 0 0 53 52 53 34 7 1 0 0 0 0 0 0 0 0 0 0 0 0 0 0 0 249 253 0 0 0 187 197 173 80 18 5 0 0 0 0 0 0 0 0 0 0 0 0 0 0 0 247 253 0 0 0 236 235 205 94 24 6 1 0 0 0 0 0 0 0 0 0 0 0 0 0 0 238 252 0 0 0 243 239 213 133 36 4 0 0 0 0 0 0 0 0 0 0 0 0 0 0 0 202 242 0 0 0 229 227 223 188 73 4 0 0 0 0 0 0 0 0 0 0 0 0 0 0 0 59 122 175 198 182 149 176 208 179 58 2 0 0 0 0 0 0 0 0 0 0 0 0 0 0 0 5 12 28 70 73 62 110 140 90 7 0 0 0 0 0 0 0 0 0 0 0 0 0 0 0 0 0 0 0 0 0 0 0 0 0 0 0 0 0 0 0 0 0 0 0 0 0 0 0 0 0 0 0 0 0 0 0 0 0 0 0 0 0 0 0 0 0 0 0 0 0 0 0 0 0 0 0 0 0 0 0 0 0 0 0 0 0 0 0 0 0 0 0 0 0 0 0 0 0 0 0 0 0 0 0 0 0 0 0 0 0 0 0 0 0 0 0 0 0 0 0 0 0 0 0 0 0 0 0 0 0 0 0 0 0 0 0 0 0 0 0 0 0 0 0 0 0 0 0 0 0 0 0 0 0 0 0 0 0 0 0 0 0 0 0 0 0 0 0 0 0 0 0 0 0 0 0 0 0 0 0 0 0 0 0 0 0 0 0 0 0 0 0 0 0 0 0 0 0 0 0 0 0 0 0 0 0 0 0 0 0 0 0 0 0 0 0 0 0 0 0 0 0 0 0 0 0 0 0 0 0 0 0 0 0 0 0 0 0 0 0 0 0 0 0 0 0 0 0 0 0 0 0 0 0 0 0 0 0 0 0 0 0 0 0 0 0 0 0 0 0 0 0 0 0 0 0 0 0 0 0 0 0 0 0 0 0 0 0 0 0 0 0 0 0 0 0 0 0 0 0 0 0 0 0 0 0 0 0 0 0 0 0 0 0 0 0 0 0 0 0 0 0 0 0 0 0 0 0 0 0 0 0 0 0 0 0 0 0 0 0 0 0 0 0 0 0 0 0 0 0 0 0 0 0 0 0 0 0 0 0 0 0 0 0 0 0 0 0 0 0 0 0 0 0 0 0 0 0 0 0 0 0 0 0 0 0 0 0 0 0 0 0 0 0 0 0 0 0 0 0 0 0 0 0 0 0 0 0 0 0 0 0 0 0 0 0 1 1 0 0 0 0 0 0 0 0 0 0 0 0 0 0 0 0 0 0 0 0 0 0 0 4 5 5 2 0 0 0 0 0 0 0 0 0 0 0 0 0 0 0 0 0 0 0 0 0 0 38 0 0 0 1 0 0 0 0 0 0 0 0 0 0 0 0 0 0 0 0 0 0 0 0 0 175 0 0 0 6 6 7 9 6 1 0 0 0 0 0 0 0 0 0 0 0 0 0 0 0 0 238 0 0 0 25 24 34 43 29 8 2 0 0 0 0 0 0 0 0 0 0 0 0 0 0 0 251 0 0 0 92 81 113 119 73 29 9 1 0 0 0 0 0 0 0 0 0 0 0 0 0 0 252 0 0 0 185 185 198 181 114 42 12 1 0 0 0 0 0 0 0 0 0 0 0 0 0 0 248 0 0 0 234 237 238 223 159 50 7 1 0 0 0 0 0 0 0 0 0 0 0 0 0 0 220 0 0 0 230 228 234 234 199 72 4 0 0 0 0 0 0 0 0 0 0 0 0 0 0 0 82 114 128 156 153 139 187 215 177 52 2 0 0 0 0 0 0 0 0 0 0 0 0 0 0 0 18 30 34 52 51 58 119 134 70 5 0 0 0 0 0 0 0 0 0 0 0 0 0 0 0 0 0 0 0 0 0 0 0 0 0 0 0 0 0 0 0 0 0 0 0 0 0 0 0 0 0 0 0 0 0 0 0 0 0 0 0 0 0 0 0 0 0 0 0 0 0 0 0 0 0 0 0 0 0 0 0 0 0 0 0 0 0 0 0 0 0 0 0 0 0 0 0 0 0 0 0 0 0 0 0 0 0 0 0 0 0 0 0 0 0 0 0 0 0 0 0 0 0 0 0 0 0 0 0 0 0 0 0 0 0 0 0 0 0 0 0 0 0 0 0 0 0 0 0 0 0 0 0 0 0 0 0 0 0 0 0 0 0 0 0 0 0 0 0 0 0 0 0 0 0 0 0 0 0 0 0 0 0 0 0 0 0 0 0 0 0 0 0 0 0 0 0 0 0 0 0 0 0 0 0 0 0 0 0 0 0 0 0 0 0 0 0 0 0 0 0 0 0 0 0 0 0 0 0 0 0 0 0 0 0 0 0 0 0 0 0 0 0 0 0 0 0 0 0 0 0 0 0 0 0 0 0 0 0 0 0 0 0 0 0 0 0 0 0 0 0 0 0 0 0 0 0 0 0 0 0 0 0 0 0 0 0 0 0 0 0 0 0 0 0 0 0 0 0 0 0 0 0 0 0 0 0 0 0 0 0 0 0 0 0 0 0 0 0 0 0 0 0 0 0 0 0 0 0 0 0 0 0 0 0 0 0 0 0 0 0 0 0 0 0 0 0 0 0 0 0 0 0 0 0 0 0 0 0 0 0 0 0 0 0 0 0 0 0 0 0 0 0 0 0 0 0 0 0 0 0 0 0 0 0 0 0 0 0 0 0 0 0 0 0 0 0 0 0 0 0 0 0 0 0 0 0 0 0 0 0 0 0 0 0 0 1 0 0 0 0 0 0 0 0 0 0 0 0 0 0 0 0 0 0 0 0 0 0 0 0 0 7 4 3 2 1 0 0 0 0 0 0 0 0 0 0 0 0 0 0 0 0 0 0 0 0 0 25 11 0 4 2 0 0 0 0 0 0 0 0 0 0 0 0 0 0 0 0 0 0 0 0 0 127 74 0 18 8 4 5 7 5 1 0 0 0 0 0 0 0 0 0 0 0 0 0 0 0 0 200 145 0 65 45 24 29 41 31 10 2 0 0 0 0 0 0 0 0 0 0 0 0 0 0 0 244 235 0 149 108 64 85 119 95 35 9 1 0 0 0 0 0 0 0 0 0 0 0 0 0 0 250 249 0 199 167 155 182 196 154 51 13 1 0 0 0 0 0 0 0 0 0 0 0 0 0 0 241 245 0 231 224 229 238 235 187 53 9 1 0 0 0 0 0 0 0 0 0 0 0 0 0 0 197 218 0 224 224 221 232 236 195 51 5 1 0 0 0 0 0 0 0 0 0 0 0 0 0 0 91 114 109 138 141 119 168 200 150 31 2 0 0 0 0 0 0 0 0 0 0 0 0 0 0 0 36 61 69 62 39 38 92 102 45 7 1 0 0 0 0 0 0 0 0 0 0 0 0 0 0 0 0 0 0 0 0 0 0 0 0 0 0 0 0 0 0 0 0 0 0 0 0 0 0 0 0 0 0 0 0 0 0 0 0 0 0 0 0 0 0 0 0 0 0 0 0 0 0 0 0 0 0 0 0 0 0 0 0 0 0 0 0 0 0 0 0 0 0 0 0 0 0 0 0 0 0 0 0 0 0 0 0 0 0 0 0 0 0 0 0 0 0 0 0 0 0 0 0 0 0 0 0 0 0 0 0 0 0 0 0 0 0 0 0 0 0 0 0 0 0 0 0 0 0 0 0 0 0 0 0 0 1 1 1 0 0 0 1 1 1 1 1 0 0 0 0 0 0 0 0 0 0 0 0 0 0 0 1 1 1 1 1 1 1 1 1 1 1 0 0 0 0 0 0 0 0 0 0 0 0 0 0 0 1 1 1 1 1 1 1 1 1 1 0 0 0 0 0 0 0 0 0 0 0 0 0 0 0 0 1 1 1 1 1 1 1 0 0 0 0 0 0 0 0 0 0 0 0 0 0 0 0 0 0 0 1 1 1 1 1 1 1 0 0 0 0 0 0 0 0 0 0 0 0 0 0 0 0 0 0 0 1 1 1 1 1 1 1 0 0 0 0 0 0 0 0 0 0 0 0 0 0 0 0 0 0 0 1 1 1 1 1 1 1 0 0 0 0 0 0 0 0 0 0 0 0 0 0 0 0 0 0 0 1 1 1 1 1 1 1 0 0 0 0 0 0 0 0 0 0 0 0 0 0 0 0 0 0 0 1 1 1 2 1 1 0 0 0 0 0 0 0 0 0 0 0 0 0 0 0 0 0 0 0 0 1 1 1 2 1 0 0 0 0 0 0 0 0 0 0 0 0 0 0 0 0 0 0 0 0 0 1 1 2 2 1 0 0 0 0 0 0 0 0 0 0 0 0 0 0 0 0 0 0 0 0 0 8 4 3 2 1 0 0 0 0 0 0 0 0 0 0 0 0 0 0 0 0 0 0 0 0 0 27 12 7 6 2 1 1 1 1 0 0 0 0 0 0 0 0 0 0 0 0 0 0 0 0 0 80 40 39 40 18 8 7 8 8 5 0 0 0 0 0 0 0 0 0 0 0 0 0 0 0 0 136 113 135 138 97 55 40 46 44 21 4 1 0 0 0 0 0 0 0 0 0 0 0 0 0 0 223 219 216 204 163 110 107 140 122 50 17 4 0 0 0 0 0 0 0 1 1 0 0 0 0 0 242 240 234 222 195 186 202 214 178 63 26 8 1 0 0 0 0 0 0 0 1 1 0 0 0 0 224 232 236 236 227 232 240 240 199 60 23 8 1 0 0 0 0 0 0 0 0 0 0 0 0 0 169 199 214 224 221 217 225 229 180 51 22 5 0 0 0 0 0 0 0 0 0 0 0 0 0 0 106 132 129 139 137 105 117 148 105 38 15 1 0 0 0 0 0 0 0 0 0 0 0 0 0 0 51 91 98 68 32 23 44 53 35 19 5 0 0 0 0 0 0 0 0 0 0 0 0 0 0 0 0 0 0 0 0 0 0 0 0 0 0 0 0 1 0 0 0 0 0 0 0 0 0 0 0 0 1 1 1 2 2 1 1 1 1 1 1 1 1 1 2 1 1 1 0 0 0 0 0 0 0 0 2 2 2 3 3 3 2 2 2 2 1 1 2 2 2 2 2 1 1 1 1 1 1 0 0 0 4 3 3 3 4 4 3 3 3 3 2 2 2 2 2 3 2 2 2 1 1 1 1 1 0 0 6 5 4 4 4 4 4 4 4 4 3 2 2 2 2 2 2 2 1 1 1 1 1 1 0 0 11 6 5 5 5 5 6 6 7 6 4 2 2 2 2 2 2 1 1 1 0 1 1 1 0 0 13 9 6 6 6 6 7 10 14 10 4 2 2 2 1 1 1 1 0 0 1 1 1 1 1 0 12 9 7 8 9 7 7 11 14 9 4 2 1 1 1 1 1 0 0 0 1 1 1 1 1 0 10 9 9 12 13 9 8 8 7 4 2 1 1 1 1 1 0 0 0 1 1 1 1 1 1 0 10 10 13 19 19 12 8 6 3 2 1 1 1 0 0 0 0 0 0 0 1 1 1 1 1 0 9 11 14 22 24 17 12 7 3 1 1 1 0 0 0 0 0 0 0 0 1 1 1 1 1 0 8 10 13 18 24 22 15 8 3 1 1 1 0 0 0 0 0 0 0 0 1 1 1 1 1 0 7 9 10 12 15 15 11 6 2 1 1 0 0 0 0 0 0 0 0 0 1 1 1 2 1 0 7 8 11 11 8 6 5 4 2 1 0 0 0 0 0 0 0 0 1 1 1 1 1 1 1 0 9 9 12 12 7 4 3 3 1 0 0 0 0 0 0 0 1 1 1 1 1 1 1 2 1 1 12 12 13 12 6 3 3 2 1 0 0 0 0 0 0 0 1 1 1 1 1 1 2 2 1 1 17 12 10 8 5 4 3 3 1 0 0 0 0 0 0 0 1 1 1 1 1 1 2 2 2 1 34 19 11 9 5 5 7 7 4 1 1 0 0 0 0 0 1 1 1 1 1 2 2 2 2 1 71 46 51 52 33 28 31 32 19 8 2 1 0 0 0 1 1 1 1 1 1 2 2 2 1 0 121 139 173 172 139 114 101 88 62 31 8 3 1 0 0 0 1 1 1 1 2 2 2 2 1 0 202 213 227 223 199 173 165 170 141 69 29 8 1 0 0 0 1 1 1 1 2 2 2 1 1 0 228 229 234 232 219 217 223 224 187 84 39 13 2 1 0 1 1 1 1 1 2 2 2 2 1 1 214 220 234 238 235 238 243 240 203 83 37 14 3 1 1 1 1 1 1 1 1 2 2 2 2 1 173 189 210 223 222 219 220 221 180 82 39 10 3 1 1 1 1 1 1 1 1 2 2 2 1 1 130 150 143 140 137 109 93 117 104 61 28 5 2 1 1 1 1 1 1 1 1 1 1 1 1 0 84 126 114 69 39 28 29 40 40 25 10 3 1 1 1 1 1 1 1 1 1 1 1 1 1 0 9 7 11 19 16 12 10 8 9 9 8 6 5 5 5 4 3 2 1 1 1 1 2 2 2 3 15 14 15 18 19 21 20 14 11 10 9 8 10 11 11 10 8 6 5 4 4 4 4 3 3 2 23 25 20 18 24 30 29 20 14 12 9 9 10 11 13 13 12 10 8 7 6 5 5 4 3 1 33 37 29 21 24 26 23 19 16 14 11 10 11 11 13 14 14 12 10 8 7 5 5 5 3 1 45 42 34 24 20 21 21 19 18 17 13 12 13 13 14 15 15 13 10 8 7 5 6 6 4 1 58 43 33 27 25 28 33 30 28 31 25 17 16 17 18 18 17 13 10 8 7 7 7 7 4 1 59 43 36 41 40 39 46 51 58 59 41 23 19 20 20 19 17 13 10 9 8 8 8 8 5 1 48 41 43 59 56 41 47 60 70 64 41 22 19 19 19 17 15 12 10 9 10 10 10 9 6 2 44 45 52 75 71 47 51 54 46 41 29 17 16 15 14 13 11 10 9 9 10 10 10 10 8 3 46 54 64 89 88 66 69 55 24 20 19 13 12 11 10 8 7 7 7 8 9 10 10 10 8 4 45 57 67 89 97 89 86 59 20 12 12 11 9 8 7 6 6 5 5 6 7 9 10 10 9 4 43 50 57 72 87 87 80 53 18 10 11 11 9 7 6 6 6 5 5 5 6 8 10 11 10 5 43 44 47 51 58 54 50 38 16 9 9 10 9 7 7 7 7 7 6 6 6 7 10 11 11 5 48 45 51 50 39 27 28 27 13 6 7 8 8 7 8 8 9 9 10 9 8 8 10 11 10 7 59 50 57 58 41 23 21 20 10 5 4 6 7 7 8 9 10 11 13 13 12 10 11 11 10 9 63 50 54 55 42 27 20 17 10 5 4 5 6 7 8 9 9 11 13 13 13 12 12 12 10 9 56 47 42 38 38 37 28 20 12 8 6 5 5 6 7 8 8 9 10 11 11 11 13 13 10 9 74 72 52 34 36 46 42 30 19 16 14 9 5 5 6 7 7 8 8 8 8 10 11 12 10 8 125 127 108 88 89 100 80 65 48 37 27 15 7 4 5 6 7 7 7 6 7 8 10 10 8 7 177 191 195 187 178 177 153 130 101 72 46 23 10 5 5 6 7 7 6 6 6 8 9 8 8 7 218 227 231 228 216 210 202 192 163 111 68 31 15 7 5 6 7 7 6 5 6 7 8 8 8 8 228 232 235 234 229 230 232 226 190 114 62 30 19 11 6 6 7 7 6 5 5 6 7 7 8 8 224 228 232 234 233 238 241 236 202 111 51 29 25 16 8 7 8 7 6 5 5 6 7 8 9 8 205 207 209 211 210 211 216 219 194 121 63 40 31 17 8 8 9 9 7 6 5 5 6 7 8 8 180 181 167 153 137 113 118 143 134 89 57 45 30 13 7 9 10 10 9 6 5 5 6 7 8 8 152 180 163 130 82 47 54 63 56 40 36 34 21 7 6 10 12 12 10 7 5 5 6 7 8 6 58 73 74 84 77 81 80 63 53 49 41 27 16 19 22 36 36 31 33 25 21 20 22 22 21 15 93 102 91 85 79 90 96 82 69 60 49 39 36 39 43 49 53 52 43 34 29 25 24 23 22 20 119 133 115 89 77 89 100 92 77 64 52 43 41 42 45 51 56 57 50 42 35 29 25 23 20 14 134 141 125 95 72 73 82 81 74 64 50 44 44 46 48 53 57 59 55 51 45 36 30 26 22 14 141 131 114 89 67 65 76 76 70 64 56 56 59 60 60 60 60 61 58 57 50 39 33 27 24 15 128 108 96 99 89 79 92 89 81 82 82 81 84 84 81 75 66 61 58 61 58 48 40 31 24 15 107 92 103 134 124 96 104 109 110 110 102 97 99 99 94 85 72 62 59 64 64 55 45 34 27 16 101 95 118 154 142 104 115 131 126 109 88 83 93 97 94 85 72 60 55 59 61 58 49 42 33 18 117 117 130 160 153 126 143 154 127 88 62 59 73 82 81 76 65 54 49 52 57 58 52 49 40 20 130 136 140 158 162 156 167 161 118 72 49 48 55 59 60 58 52 45 40 42 46 50 50 50 45 26 128 137 139 149 159 167 173 151 105 67 51 54 52 47 46 47 44 40 35 35 38 45 49 53 49 37 127 128 128 135 145 154 159 136 93 66 61 66 61 50 43 42 42 42 38 33 34 40 47 52 50 41 135 124 126 129 127 126 133 123 86 58 55 62 62 52 44 43 45 51 51 45 40 39 46 50 48 42 148 130 134 134 121 109 114 112 81 47 41 50 56 53 49 48 50 60 69 71 61 47 46 46 43 39 157 139 134 132 124 106 100 101 77 43 32 42 50 51 51 54 57 67 80 87 81 64 52 44 38 35 156 146 127 123 127 113 103 97 74 45 28 33 39 44 49 57 60 65 75 84 84 74 60 45 34 28 143 148 123 106 118 121 122 108 75 49 32 28 30 37 46 55 56 57 64 70 72 69 59 43 29 19 142 162 138 102 106 126 138 118 76 54 41 31 26 30 38 45 47 48 52 54 53 52 48 38 27 14 181 195 174 143 145 157 155 137 99 77 59 39 27 26 32 38 41 43 43 40 38 40 39 33 25 14 218 224 214 202 201 202 190 177 152 118 82 50 31 25 31 37 39 39 35 30 29 33 34 29 25 14 234 237 234 229 225 224 219 211 191 153 103 58 37 28 31 36 37 34 28 25 25 29 30 28 26 15 236 239 237 234 233 235 235 227 200 147 92 56 43 34 31 33 31 28 23 21 21 25 27 27 25 14 237 239 235 230 230 235 237 231 204 145 84 58 51 41 32 31 30 28 24 19 18 22 25 28 24 13 232 230 220 207 202 209 217 218 201 156 100 73 58 41 33 35 35 34 28 21 19 21 25 29 25 13 219 217 204 182 165 155 161 172 168 131 95 79 56 33 33 43 46 43 34 24 19 20 24 29 25 13 192 216 206 185 147 113 115 121 117 90 74 66 44 26 32 50 60 58 45 28 19 19 22 26 24 11 133 159 154 149 142 147 148 138 131 130 123 109 97 99 102 114 114 110 108 96 85 77 76 70 58 38 171 174 163 151 142 148 152 144 138 135 129 119 111 112 116 121 125 126 121 111 98 85 77 70 59 51 183 186 174 155 139 142 149 145 138 133 127 121 117 116 119 122 127 132 131 127 117 98 80 68 57 46 183 183 176 161 142 136 142 140 133 126 119 119 120 121 122 124 127 131 134 135 130 116 94 75 62 50 180 172 166 162 151 143 153 155 141 127 119 122 128 131 129 127 126 128 130 136 135 126 108 83 68 57 165 153 156 173 170 157 174 179 163 143 131 131 138 141 138 133 126 122 121 128 132 130 118 96 78 66 152 143 160 193 191 172 185 192 178 157 138 136 141 143 142 136 127 118 114 118 123 125 119 106 93 80 164 153 170 201 201 186 196 202 184 153 125 122 132 138 139 135 125 115 107 105 108 111 111 110 103 91 182 172 178 203 206 201 211 214 191 145 108 103 116 125 128 126 119 110 100 96 97 99 102 109 107 94 191 185 186 201 207 212 218 214 188 140 104 100 105 108 111 113 111 107 100 90 86 89 92 101 104 95 193 191 192 198 203 212 215 203 177 143 125 125 121 111 104 104 107 113 114 102 87 84 89 97 100 95 195 193 193 196 198 205 207 195 175 157 152 155 149 134 119 113 118 129 137 131 110 89 87 93 93 89 201 193 195 199 197 196 197 191 177 163 160 160 157 148 137 134 138 147 156 156 142 111 90 88 87 85 208 196 195 200 197 190 187 183 168 149 143 145 146 144 143 146 149 156 165 170 164 142 110 87 81 79 213 201 190 196 198 184 178 172 152 127 116 119 123 127 134 145 151 155 161 169 171 161 134 97 77 72 214 208 190 194 199 184 178 168 143 117 101 101 104 109 119 134 141 141 144 151 159 161 148 114 78 63 213 214 197 195 196 185 187 173 142 117 101 94 94 99 109 122 127 125 126 132 140 148 143 115 75 53 213 218 207 197 192 187 197 183 149 128 111 97 90 92 100 111 116 115 115 116 121 129 129 109 75 49 223 227 216 207 202 199 207 195 168 151 130 106 89 87 94 104 110 111 107 102 104 111 111 96 71 49 235 236 229 224 222 221 221 213 193 172 143 111 87 83 91 102 109 108 98 90 91 98 96 82 66 49 240 241 238 235 234 233 232 225 210 186 149 111 85 80 88 100 106 101 89 81 82 87 87 78 66 51 241 243 240 238 237 238 238 231 214 186 148 109 85 81 87 97 98 92 83 77 74 74 74 71 64 50 243 244 240 237 236 236 237 232 216 186 146 108 89 84 88 94 96 95 91 83 72 68 69 71 65 51 243 242 236 229 226 227 227 224 213 186 146 113 96 89 89 94 99 105 103 90 74 66 67 72 66 52 239 239 233 222 219 217 210 205 200 176 143 118 98 87 89 98 105 112 111 96 74 60 61 68 64 49 218 236 231 223 215 207 198 190 187 163 134 113 94 83 89 103 114 123 122 107 79 56 54 62 61 38 103 124 118 110 103 104 106 104 104 105 102 96 89 89 91 93 93 91 87 80 70 63 60 54 42 27 130 127 119 110 102 102 103 101 101 104 104 99 93 92 94 95 96 97 96 91 81 69 61 54 42 35 130 125 119 111 103 101 99 95 95 99 100 99 96 96 97 97 98 102 105 105 98 81 64 53 42 35 122 117 117 117 111 104 102 97 92 91 92 96 98 98 98 97 98 101 106 110 107 96 76 58 46 39 115 110 114 124 123 115 120 121 107 93 88 91 97 100 99 97 95 95 99 106 109 106 89 66 51 45 110 105 114 134 136 127 142 150 133 107 88 84 91 95 95 93 91 89 88 93 100 105 96 79 63 55 112 105 116 142 147 140 156 164 146 117 89 78 82 86 89 90 88 83 79 78 84 93 95 88 77 69 127 114 119 148 157 155 166 169 149 117 86 73 75 79 84 86 84 80 73 68 69 75 83 87 84 79 140 124 126 152 162 165 174 172 148 112 81 69 71 75 79 81 81 78 70 62 59 61 69 81 84 82 145 133 136 156 163 169 174 165 141 106 81 73 72 72 74 76 79 80 75 63 55 55 60 70 78 79 149 144 148 158 162 169 169 154 132 110 100 97 93 83 76 75 80 90 95 82 62 53 57 64 69 71 153 150 155 160 160 164 162 150 137 127 125 125 120 109 95 89 94 107 119 116 92 63 56 59 61 61 157 152 155 160 160 158 154 147 144 140 138 135 131 125 116 113 116 123 134 138 124 90 61 55 56 56 162 153 151 159 160 151 144 139 133 128 125 122 119 119 121 124 128 131 136 142 140 120 85 58 53 53 168 156 145 157 160 144 137 128 114 103 98 96 96 99 108 120 126 125 125 130 137 135 109 72 53 50 173 163 148 159 160 140 135 123 103 90 84 81 81 83 91 104 112 108 105 108 119 129 121 90 58 46 177 172 159 165 161 140 138 124 101 90 83 78 76 76 81 90 95 93 90 91 101 115 116 94 59 43 182 180 169 170 161 143 147 134 114 103 92 82 75 74 77 84 89 88 84 83 90 102 105 90 61 44 190 188 177 175 168 158 161 148 133 125 109 88 74 71 74 82 87 86 81 78 81 89 90 78 57 44 197 196 187 185 183 179 178 163 148 137 117 91 72 68 72 80 87 85 77 71 74 79 77 65 51 43 200 202 195 193 192 191 188 174 157 140 117 88 67 64 69 79 85 82 72 65 66 70 69 62 51 44 201 204 198 195 194 195 194 182 163 143 117 86 65 62 68 78 81 76 69 64 60 59 57 54 48 44 205 205 200 196 194 191 191 184 166 143 114 83 65 64 70 76 79 80 78 72 61 54 53 53 50 47 208 206 199 191 189 186 181 174 161 138 108 84 72 70 71 73 80 87 89 79 62 52 51 53 51 48 205 205 196 187 186 184 170 159 152 132 107 88 77 71 70 72 79 89 93 83 62 46 45 49 49 45 176 201 194 187 185 181 167 153 147 129 105 87 75 69 69 72 79 91 98 92 68 43 39 44 46 33 0 0 0 0 0 0 0 0 0 0 0 0 0 0 0 0 0 0 0 0 0 0 0 0 0 0 0 0 0 0 0 0 0 0 0 0 0 0 0 0 0 0 0 0 0 0 0 0 0 0 0 0 0 0 0 0 0 0 0 0 0 0 0 0 0 0 0 0 0 0 0 0 0 0 0 0 0 0 0 0 0 0 0 0 0 0 0 0 0 0 0 0 0 0 0 0 0 0 0 0 0 0 0 0 0 0 0 0 0 0 0 0 0 0 0 0 0 0 0 0 0 0 0 0 0 0 0 0 0 0 0 0 0 0 0 0 0 0 0 0 0 0 0 0 0 0 0 0 0 0 0 0 0 0 0 0 0 0 0 0 0 0 0 0 0 0 0 0 0 0 0 0 0 0 0 0 0 0 0 0 0 0 0 0 0 0 0 0 0 0 0 0 0 0 0 0 0 0 0 0 0 0 0 0 0 0 0 0 0 0 0 0 0 0 0 0 0 0 0 0 0 0 0 0 0 0 0 0 0 0 0 0 0 0 0 0 0 0 0 0 0 0 0 0 0 0 0 0 0 0 0 0 0 0 0 0 0 0 0 0 0 0 0 0 0 0 0 0 0 0 0 0 0 0 0 0 0 0 0 0 0 0 0 0 0 0 0 0 0 0 0 0 0 0 0 0 0 0 0 0 0 0 0 0 0 0 0 0 0 0 0 0 0 0 0 0 0 0 0 0 0 0 0 0 0 0 0 0 0 0 0 0 0 0 0 0 0 0 0 0 0 0 0 0 0 0 0 0 0 0 0 0 0 0 0 0 0 0 0 0 0 0 0 0 0 0 0 0 0 0 0 0 0 0 0 0 0 0 0 0 0 0 0 0 0 0 0 0 0 0 0 0 0 0 0 0 0 0 0 0 0 0 0 0 0 0 0 0 0 0 0 0 0 0 0 0 0 0 0 0 0 0 0 0 0 0 0 0 0 0 0 0 0 0 0 0 0 0 0 0 0 0 0 0 0 0 0 0 0 0 0 0 0 0 0 0 0 0 0 0 0 0 0 0 0 0 0 0 0 0 0 0 0 0 0 0 0 0 0 0 0 0 0 0 0 0 0 0 0 0 0 0 0 0 0 0 0 0 0 0 0 0 0 0 0 0 0 0 0 0 0 0 0 0 0 0 0 0 0 0 0 0 0 0 0 0 0 0 0 0 0 0 0 0 0 0 0 0 0 0 0 0 0 0 0 0 0 0 0 0 0 0 0 0 0 0 0 0 0 0 0 0 0 0 0 0 0 0 0 0 0 0 0 0 0 0 0 0 0 0 0 0 0 0 0 0 0 0 0 0 0 0 0 0 0 0 0 0 0 0 0 0 0 0 0 0 0 0 0 0 0 0 0 0 0 0 0 0 0 0 0 0 0 0 0 0 0 0 0 0 0 0 0 0 0 0 0 0 0 0 0 0 0 0 0 0 0 0 0 0 0 0 0 0 0 0 0 0 0 0 0 0 0 0 0 0 0 0 0 0 0 0 0 0 0 0 
</DataArray>
<DataArray Name="HRRPUV" NumberOfComponents="1" type="UInt8" format="ascii">