<?xml version="1.0"?>
<VTKFile type="PolyData" version="1.0" byte_order="LittleEndian" header_type="UInt64">
<PolyData>
<Piece NumberOfPoints="5622" NumberOfVerts="0" NumberOfLines="0" NumberOfPolys="0">
    <Points>
        <DataArray type="Float32" NumberOfComponents="3" format="ascii">
        16.9458 9.0998 1.9377 18.4363 11.6096 0.9587 17.7677 9.2391 3.4416 15.9865 7.2228 2.4349 16.8180 9.2071 3.1524 16.2961 14.8445 3.3354 16.8230 9.9732 2.9052 17.1532 7.2578 4.6777 17.2848 8.6157 3.2373 16.2617 10.0001 1.7818 17.7603 11.8826 0.0363 17.4066 10.7137 0.9012 17.5506 10.0000 0.6466 17.3575 7.6219 3.5826 15.4061 9.1570 1.2351 17.6777 10.7277 0.9712 17.4029 9.8768 3.4713 17.4880 11.2336 0.8361 17.8208 10.0000 0.8755 17.0836 6.5317 5.5468 17.7978 10.0000 0.4736 17.5345 10.6375 5.0380 16.7311 6.6702 1.5462 17.4552 9.9287 1.9795 16.7637 6.9674 1.2115 16.2785 3.8135 4.6620 16.2917 4.0459 3.7295 18.3556 10.5245 1.0566 18.0146 9.4954 2.1492 17.9477 9.8567 2.0101 16.5897 10.9026 1.4520 15.6622 11.6187 1.9685 17.0065 9.9654 1.4835 17.5415 8.1006 3.4336 16.7280 11.1319 0.9331 15.7914 10.0000 3.1403 16.6681 12.2195 0.3604 15.9150 11.1260 2.2155 16.0888 9.3944 2.6865 16.2213 5.4305 3.6930 15.1272 6.5329 5.0603 15.3236 9.6160 0.2915 15.5522 6.2790 2.8786 15.3093 7.4169 2.7906 15.2464 5.7249 2.4066 15.6433 14.4165 2.6478 16.8256 9.3436 2.8699 15.8907 8.3095 4.5313 16.0884 10.2729 1.4926 17.1468 11.0476 0.7356 16.9900 11.3310 0.3863 17.2395 14.0000 0.3184 17.2374 8.3861 2.6987 15.1389 14.2978 1.0167 15.0338 6.9559 6.6592 16.1315 8.2168 0.8272 16.6440 5.2813 4.8838 17.1783 0.8611 5.4798 18.9671 10.5814 2.1906 16.5535 6.1548 5.2509 16.8257 7.8717 2.2266 17.4501 8.6925 0.4123 17.4043 9.2203 0.1576 16.4645 6.4117 3.9230 17.8339 4.5128 4.8669 17.1334 5.6615 2.9654 17.5991 7.5265 0.3627 17.7278 7.1009 1.0498 19.0667 10.2233 2.1404 18.8049 10.9782 2.4022 17.5267 7.2323 0.4673 17.3300 8.4395 0.1056 15.0906 4.7216 4.3458 15.8528 6.7737 2.3808 19.0695 10.2691 2.1376 16.8191 6.8450 0.6941 15.9619 2.6963 6.6143 15.7914 5.9448 1.9378 17.7619 9.8604 2.5484 17.9993 10.0000 0.6924 19.1742 10.3017 2.0329 18.9832 10.4140 2.2239 16.1203 5.3071 3.1737 17.7115 10.0000 0.7230 16.3856 6.0050 1.4481 16.5238 7.5317 0.2925 18.2101 10.0175 1.3525 17.4566 10.2653 5.3270 15.5629 9.9366 0.3828 17.0902 10.1777 1.2972 17.3095 10.6390 2.2027 16.7655 8.5279 5.2286 19.0774 10.3896 2.1154 16.5829 7.6190 0.9806 15.5771 9.6160 0.1404 17.4212 10.0000 0.2609 15.0998 14.7843 1.9535 16.3230 7.3533 1.8662 16.2964 6.8226 2.2502 18.8376 10.8212 2.3695 18.8008 10.4976 2.4063 16.8737 7.8379 1.0110 16.8257 7.2952 1.1836 15.9594 5.9311 3.6834 16.4968 10.7951 2.0957 15.6142 6.3252 4.6325 18.2042 10.0000 2.2529 18.8361 10.4430 2.3710 15.1443 8.4716 2.2373 16.0667 5.8353 2.3792 18.2279 10.2032 0.1166 15.4264 10.0000 0.2402 18.9004 10.6850 2.3571 16.1026 5.1911 3.1689 15.9475 4.7918 3.7181 18.2028 10.0000 2.0019 18.7182 10.4907 2.4889 15.0955 9.3881 0.3123 15.4980 9.6475 0.1175 16.7573 8.7712 0.3809 18.7204 11.0252 2.4867 18.8667 10.9383 2.4877 17.3633 9.5798 0.2676 16.0697 6.8137 4.0083 17.4138 9.1973 0.4800 16.5985 4.8315 6.2027 18.5680 10.3587 2.6391 16.1252 7.8226 2.5564 16.5876 8.5929 1.3342 18.2077 10.0000 2.5598 15.3305 6.3819 4.5615 16.2750 5.7146 4.6892 19.0042 10.3737 2.2029 16.3727 4.0759 5.5699 15.9933 5.5664 4.5531 16.1414 7.2209 2.3133 16.7358 6.6619 4.3064 16.9413 7.6960 2.4949 16.6248 8.9640 0.3194 18.7810 10.7126 2.4261 16.4779 6.2134 5.6393 17.5140 9.2997 0.7067 17.4700 9.0759 0.5746 16.1860 8.5630 0.7284 16.9620 7.1645 0.4809 18.0203 10.4824 3.1868 18.6857 11.0109 2.5214 17.1598 8.1207 2.3130 18.2933 10.4519 2.9138 16.9265 8.9960 1.1293 15.6770 9.0807 1.5915 17.1477 8.2413 2.1475 16.2946 10.2275 0.3935 18.6480 10.5791 2.5591 17.2614 10.3976 0.2277 15.5482 6.6720 5.3521 18.0574 10.2203 3.1497 15.0799 7.7550 5.4524 16.2545 9.6458 3.0285 16.0064 12.2197 6.1309 15.4511 8.0794 5.1366 17.7308 10.6076 3.4763 15.4862 12.4839 0.7005 15.1137 10.5019 5.2080 16.0542 11.5640 5.9005 16.6673 8.4850 2.0486 15.3444 12.2662 0.5266 17.9543 10.8563 3.2528 16.9451 9.0230 1.0864 15.7173 12.1345 0.4087 17.2411 9.1414 0.3563 18.4397 11.2760 2.7674 16.7592 8.3005 1.3335 15.2684 6.3370 1.9107 18.2970 11.2433 2.9101 15.2149 14.6904 0.5846 17.7805 10.4126 3.4266 15.7869 10.2297 3.9122 15.3354 10.0000 1.0369 16.5430 9.3110 3.2896 15.6392 9.0469 2.0467 18.1583 11.0397 3.0488 16.4975 5.3206 4.2819 17.4277 2.8049 6.0405 17.9960 10.7858 3.2111 16.5770 5.7813 1.8194 16.5700 5.7575 2.1204 15.3074 11.2125 1.3021 15.2551 14.9077 2.7828 18.2604 11.0612 2.9467 15.7706 11.1902 0.0182 16.5294 5.8020 1.8979 18.3777 11.1211 2.8294 16.4728 3.6884 3.6483 15.5106 10.0000 1.4147 16.1048 4.5701 2.8694 18.0329 10.2690 3.1742 15.4418 11.9313 0.0434 17.8693 10.1521 3.3378 18.5543 10.6907 2.6528 15.2626 11.2420 0.7493 18.1510 10.4728 3.0561 16.0471 7.4057 2.3427 16.9892 5.5763 1.4747 16.8901 6.4253 0.2150 15.1216 8.7449 2.9703 18.4243 11.2381 2.7828 17.8898 8.2483 0.7674 17.3158 10.6187 0.2886 18.4039 11.0123 2.8032 18.3358 10.9476 2.8713 18.3452 10.9774 2.8619 18.3809 11.0789 2.8263 17.7174 9.6178 0.6225 17.7134 9.3210 0.4739 18.3260 10.9771 2.8811 18.3749 11.0414 2.8322 18.3095 10.8691 2.8976 15.4391 10.0000 2.0058 16.4645 4.7261 5.5473 17.8961 10.6049 3.3110 18.0586 10.2714 3.1485 17.9588 5.9183 3.9579 18.1163 6.9915 3.1109 18.2660 10.4093 2.9411 18.1964 10.6028 3.0107 18.6191 10.7812 2.5880 15.8692 9.1220 2.9403 18.7951 5.1798 4.3116 16.7359 4.9474 6.0146 18.2715 10.5120 2.9356 15.4404 11.2931 2.6764 17.8653 10.3490 3.3418 18.0571 10.4957 3.1500 18.2324 5.0283 5.1046 17.7672 11.1188 1.0964 18.4479 11.3270 2.7592 15.4199 10.4657 1.6509 17.9236 5.8621 5.0431 17.2592 8.5608 2.6088 18.7854 10.6259 2.4217 15.3435 10.0000 1.5392 18.3615 6.5999 4.9451 18.2187 10.3787 2.9884 18.3978 11.2985 2.8094 18.6563 5.5398 5.1062 17.9747 9.9108 2.5849 18.7481 10.3826 2.4590 18.3539 10.5271 2.8532 18.3579 10.6112 2.8492 18.2910 10.4871 2.9161 18.3827 10.5701 2.8244 18.4202 10.5334 2.7869 15.4453 10.3297 1.4715 17.9066 10.0000 0.7546 15.6185 9.7307 1.8275 18.1961 10.2159 3.0110 18.3344 10.5145 2.8727 15.5049 9.6702 1.2091 18.3337 10.8483 2.8734 16.9205 8.2467 3.5288 18.2913 10.5572 2.9158 18.3582 10.5067 2.8489 18.4359 10.5694 2.7712 18.2860 10.5791 2.9211 17.8808 10.7416 0.9283 18.4289 11.2637 2.7782 18.5974 10.5387 2.6097 18.2869 10.6301 2.9202 16.3179 7.4448 5.3168 18.4501 10.5433 2.7570 18.4691 10.4817 2.7380 15.3491 8.9678 1.0556 15.2473 8.3494 1.7144 18.2595 10.4076 2.9476 15.7710 9.0407 0.3343 17.8263 9.8212 1.5500 18.5325 10.3826 2.6746 18.1639 10.9086 3.0432 18.7992 10.7137 2.3987 18.4678 10.5506 2.7393 18.5476 10.5537 2.6595 18.6185 10.5160 2.5886 18.4068 10.9160 2.8003 15.2817 6.7286 0.6738 18.5072 10.4110 2.6999 18.7992 10.8126 2.4079 18.6467 10.5292 2.5604 18.3702 10.4415 2.8369 18.2099 10.5689 2.9972 18.5393 10.6122 2.6678 18.5298 10.4217 2.6773 18.5199 10.5147 2.6872 15.5198 5.4823 0.6576 18.6109 10.4896 2.5962 16.0220 7.0254 4.5698 18.4514 11.2514 2.7557 18.5919 10.5848 2.6152 18.1985 10.0000 2.5690 18.3114 10.6656 2.8957 18.7331 11.0071 2.4740 18.8960 10.4958 2.3111 18.1668 10.9480 3.0403 18.2762 10.8837 2.9309 18.6217 10.4801 2.5854 15.2921 4.3589 3.0911 17.9629 10.0593 3.2442 18.7972 10.7848 2.4099 18.2328 10.6716 2.9743 15.2550 6.1600 2.2359 18.3310 10.4069 2.8761 18.4490 10.8882 2.7581 18.9019 10.8034 2.3052 18.4566 10.2919 2.7505 18.6354 10.7227 2.5717 16.5036 9.6068 0.4502 18.4545 10.3585 2.7526 18.2500 10.4636 2.9571 18.1613 10.2348 3.0458 18.2217 11.1240 2.9854 18.1232 11.3462 3.0839 15.7280 7.1958 1.6026 18.3867 10.4227 2.8204 18.3592 10.8583 2.8479 18.2933 11.2549 2.9138 18.7725 10.7143 2.4347 18.7789 10.6987 2.4282 17.0519 8.9899 0.1193 16.9853 9.1596 0.3915 18.9165 10.3025 2.2906 16.9636 8.6586 0.3385 18.3489 11.0648 2.8582 18.5564 10.4263 2.6508 16.0378 8.6683 1.3290 18.7955 10.3946 2.4116 18.2932 11.1814 2.9139 16.3153 6.4887 3.5429 17.0595 8.6854 0.2993 18.3057 10.8896 2.9014 18.3483 11.0268 2.8588 18.2077 11.2957 2.9994 18.5955 10.7628 2.6116 18.3033 10.7697 2.9038 18.3476 10.7451 2.8595 18.0665 10.8556 3.1406 18.3196 11.3445 2.8875 18.3712 10.5161 2.8359 18.3193 10.9725 2.8878 16.7284 6.2311 3.8710 17.1105 7.7327 2.0824 16.3415 6.3308 5.0025 15.5115 5.0464 2.2917 15.6879 4.1959 3.2740 18.3549 11.1842 2.8522 18.3323 11.3094 2.8748 17.3055 5.1577 4.8907 16.8115 5.8104 5.5632 18.2871 10.9604 2.9200 16.7169 6.5317 4.6802 18.4156 11.1446 2.7915 16.9379 10.0898 0.2204 15.6144 5.6951 1.4978 18.3474 11.3580 2.8597 18.2670 11.1405 2.9401 18.4563 11.2546 2.7508 15.4032 5.0830 1.8517 15.3940 5.8310 1.4534 17.9382 11.3964 3.2689 18.3634 11.0308 2.8437 15.5261 8.8354 4.6000 15.8733 10.6969 0.0832 18.4334 11.1402 2.7737 15.7631 9.4326 7.9039 15.6931 5.5636 5.0336 15.2889 9.2647 7.7677 18.4123 11.2837 2.7948 16.9613 6.9401 3.9530 18.4156 11.3001 2.7915 18.4058 11.3592 2.8013 17.7181 10.1786 1.8368 18.1305 10.8610 3.0767 15.3287 3.9251 4.5104 18.2550 10.6263 2.9521 18.2970 10.7766 2.9101 18.3673 10.8212 2.8398 18.3590 11.3672 2.8481 18.2417 11.2343 2.9654 15.4228 8.8256 1.8724 17.8501 10.5052 3.3570 18.4471 11.1613 2.7600 15.4116 10.0000 1.8522 18.3850 11.0208 2.8221 18.1711 11.3825 3.0360 16.9535 7.5020 3.1074 15.8417 7.1071 0.0875 18.2964 11.3736 2.9107 17.9079 10.9860 3.2992 18.4054 11.1379 2.8017 15.6904 9.8095 0.9540 18.2910 11.3706 2.9161 16.6656 9.3514 0.0694 18.1645 11.3844 3.0427 15.3954 9.0697 1.7838 16.2561 11.4384 6.6479 15.5602 6.7968 0.9591 18.3262 10.9684 2.8809 15.7263 9.8159 0.6633 17.7289 10.5657 3.4782 17.9950 11.1345 3.2121 18.1106 11.0859 3.0965 15.2532 9.9510 3.8664 18.0242 11.3074 3.1830 15.3405 9.4121 2.9039 15.0767 10.4193 1.8254 17.7362 10.2620 3.4709 18.0541 11.0205 3.1530 18.2003 11.3975 3.0068 15.6828 7.3445 1.1511 15.4222 4.9918 3.4962 18.2339 11.1221 2.9732 18.0967 11.1142 3.1104 18.4515 11.3336 2.7556 17.6148 10.4459 3.5923 15.2341 10.3996 1.4256 18.3075 10.6732 2.8996 18.3115 10.9510 2.8956 16.5723 8.3946 0.3348 15.4025 10.0000 1.9622 17.6325 10.4953 3.5746 18.4251 10.
[...]
    <PointData>
        <DataArray type="Float32" Name="tag" format="ascii">
            25915.0000 30607.0000 37327.0000 52967.0000 53999.0000 60211.0000 66647.0000 90131.0000 90407.0000 91523.0000 93675.0000 100163.0000 105075.0000 110307.0000 114435.0000 118271.0000 120251.0000 128123.0000 130483.0000 132075.0000 134307.0000 141239.0000 142243.0000 143039.0000 145659.0000 147415.0000 151771.0000 162187.0000 164435.0000 166591.0000 169091.0000 169219.0000 169739.0000 172155.0000 173435.0000 175111.0000 177123.0000 177499.0000 183075.0000 188391.0000 192495.0000 198419.0000 200923.0000 204775.0000 206559.0000 206583.0000 212979.0000 215783.0000 217555.0000 219507.0000 232031.0000 235671.0000 244871.0000 248479.0000 254991.0000 257135.0000 257691.0000 260747.0000 265503.0000 269711.0000 273191.0000 273639.0000 273731.0000 276987.0000 281795.0000 283135.0000 285955.0000 289187.0000 289755.0000 291371.0000 293351.0000 301307.0000 307467.0000 310563.0000 310771.0000 311715.0000 313443.0000 313467.0000 314811.0000 317227.0000 317459.0000 318963.0000 319475.0000 319799.0000 320919.0000 323371.0000 325547.0000 326947.0000 327315.0000 328315.0000 328363.0000 331443.0000 331691.0000 332487.0000 336095.0000 336163.0000 336523.0000 336847.0000 336923.0000 337451.0000 339023.0000 339891.0000 339915.0000 339951.0000 340931.0000 341411.0000 341439.0000 345911.0000 345971.0000 346879.0000 347911.0000 347943.0000 347971.0000 348595.0000 350935.0000 351795.0000 355159.0000 357455.0000 357643.0000 361987.0000 364591.0000 368031.0000 368239.0000 368571.0000 371855.0000 372191.0000 372823.0000 372855.0000 373047.0000 374007.0000 374143.0000 375679.0000 376035.0000 376123.0000 377547.0000 377775.0000 378051.0000 380063.0000 382291.0000 384083.0000 386775.0000 387755.0000 388163.0000 389051.0000 389071.0000 389291.0000 389335.0000 391587.0000 391979.0000 392175.0000 392439.0000 392919.0000 393887.0000 395379.0000 396387.0000 396719.0000 397463.0000 398923.0000 398927.0000 399059.0000 399151.0000 401051.0000 402303.0000 403823.0000 404687.0000 405463.0000 406215.0000 406247.0000 407079.0000 409595.0000 410403.0000 413379.0000 413999.0000 415267.0000 417775.0000 418723.0000 418831.0000 419263.0000 420003.0000 420275.0000 422651.0000 422743.0000 423919.0000 424695.0000 425643.0000 426471.0000 426947.0000 427223.0000 427227.0000 427391.0000 427603.0000 428323.0000 429127.0000 429963.0000 430415.0000 431423.0000 432351.0000 432551.0000 433855.0000 434047.0000 434063.0000 435139.0000 436943.0000 437415.0000 438855.0000 439507.0000 441195.0000 442179.0000 443191.0000 444455.0000 444751.0000 444871.0000 444951.0000 445635.0000 445827.0000 446079.0000 446359.0000 446371.0000 447643.0000 447687.0000 447819.0000 447951.0000 448539.0000 448947.0000 449299.0000 449979.0000 450019.0000 451115.0000 452455.0000 452587.0000 452755.0000 452963.0000 453099.0000 453155.0000 453331.0000 453919.0000 454435.0000 454683.0000 455411.0000 455415.0000 455675.0000 455923.0000 457027.0000 457283.0000 457687.0000 458075.0000 458151.0000 458879.0000 459103.0000 459135.0000 460303.0000 460463.0000 460663.0000 460783.0000 461363.0000 461755.0000 461915.0000 462191.0000 462207.0000 462335.0000 463139.0000 463631.0000 463659.0000 463671.0000 463691.0000 464207.0000 464975.0000 465055.0000 465255.0000 465995.0000 466627.0000 466679.0000 466803.0000 466855.0000 466859.0000 466959.0000 467439.0000 468191.0000 468207.0000 468235.0000 468407.0000 468439.0000 468491.0000 468643.0000 468683.0000 469687.0000 469699.0000 469707.0000 470203.0000 470275.0000 471483.0000 471831.0000 471867.0000 473175.0000 473235.0000 474655.0000 474803.0000 475063.0000 476363.0000 476543.0000 476707.0000 477023.0000 478307.0000 478463.0000 478531.0000 478571.0000 478607.0000 478683.0000 479779.0000 479951.0000 479955.0000 480083.0000 480155.0000 480227.0000 481647.0000 482351.0000 483043.0000 483255.0000 483279.0000 483295.0000 483423.0000 484455.0000 484711.0000 484819.0000 488063.0000 488067.0000 488143.0000 488283.0000 488343.0000 488467.0000 488519.0000 488667.0000 488839.0000 488927.0000 489739.0000 489759.0000 489763.0000 490063.0000 490115.0000 490323.0000 490519.0000 491735.0000 491915.0000 491995.0000 492047.0000 492095.0000 492223.0000 493083.0000 493355.0000 493503.0000 493815.0000 494535.0000 494815.0000 494947.0000 495035.0000 495087.0000 495183.0000 495199.0000 495355.0000 495411.0000 495711.0000 495979.0000 496871.0000 496975.0000 497047.0000 497731.0000 497799.0000 498267.0000 498511.0000 498663.0000 500047.0000 500251.0000 500255.0000 500283.0000 500287.0000 500347.0000 500419.0000 500479.0000 500511.0000 500631.0000 500835.0000 501571.0000 501799.0000 501827.0000 502143.0000 502231.0000 502335.0000 502567.0000 504439.0000 505575.0000 505647.0000 505707.0000 505723.0000 506051.0000 507131.0000 507415.0000 507547.0000 507867.0000 509135.0000 509223.0000 509335.0000 509451.0000 509583.0000 509679.0000 510207.0000 511271.0000 511303.0000 511367.0000 511467.0000 511519.0000 511663.0000 512743.0000 513119.0000 513155.0000 514579.0000 514999.0000 515195.0000 515955.0000 516279.0000 517115.0000 518563.0000 518891.0000 519047.0000 519255.0000 519271.0000 519343.0000 519759.0000 520623.0000 520647.0000 520755.0000 521107.0000 521951.0000 522619.0000 522835.0000 523271.0000 523667.0000 523947.0000 524267.0000 524547.0000 524583.0000 524815.0000 524983.0000 525447.0000 525527.0000 525699.0000 526251.0000 526315.0000 526471.0000 526575.0000 526687.0000 527963.0000 528195.0000 528563.0000 529887.0000 529999.0000 532043.0000 532107.0000 532251.0000 532271.0000 533115.0000 533179.0000 533491.0000 533687.0000 533927.0000 534307.0000 534487.0000 534563.0000 535279.0000 535735.0000 536499.0000 536755.0000 536827.0000 536875.0000 536967.0000 537007.0000 537851.0000 538203.0000 538523.0000 538603.0000 540751.0000 541651.0000 542067.0000 542195.0000 542795.0000 543767.0000 543775.0000 544023.0000 544819.0000 545203.0000 545327.0000 546003.0000 546383.0000 546707.0000 547199.0000 547203.0000 547263.0000 547795.0000 548039.0000 548091.0000 548407.0000 548675.0000 548891.0000 548943.0000 549811.0000 550135.0000 551147.0000 551447.0000 551599.0000 551791.0000 552035.0000 552207.0000 552615.0000 552663.0000 553027.0000 553075.0000 553571.0000 553671.0000 553739.0000 553971.0000 554399.0000 554851.0000 555591.0000 555763.0000 556495.0000 556799.0000 557563.0000 558019.0000 558063.0000 560163.0000 560515.0000 560615.0000 561639.0000 561755.0000 561831.0000 561971.0000 562427.0000 562503.0000 562539.0000 562995.0000 563079.0000 563791.0000 563899.0000 564539.0000 564547.0000 565107.0000 566555.0000 566579.0000 566727.0000 566807.0000 567251.0000 567539.0000 567747.0000 568471.0000 568507.0000 568547.0000 568843.0000 568883.0000 568891.0000 568959.0000 569043.0000 569187.0000 569699.0000 570203.0000 570331.0000 571143.0000 571667.0000 571763.0000 572111.0000 572235.0000 573287.0000 573379.0000 573803.0000 575207.0000 575215.0000 575615.0000 575747.0000 575883.0000 576663.0000 576747.0000 576831.0000 577543.0000 578407.0000 578467.0000 578759.0000 578787.0000 578995.0000 579975.0000 580107.0000 580227.0000 580395.0000 581307.0000 581851.0000 582227.0000 582259.0000 582291.0000 582419.0000 583799.0000 584527.0000 584763.0000 585147.0000 585327.0000 585415.0000 586027.0000 587463.0000 587523.0000 587707.0000 588563.0000 588603.0000 588651.0000 588751.0000 588811.0000 588815.0000 589163.0000 590259.0000 590831.0000 591403.0000 593327.0000 593511.0000 593971.0000 594019.0000 594195.0000 594223.0000 594491.0000 595103.0000 595175.0000 595287.0000 595375.0000 595395.0000 595459.0000 595475.0000 595495.0000 595667.0000 596399.0000 596591.0000 596639.0000 596923.0000 596975.0000 597107.0000 597839.0000 597999.0000 598047.0000 598291.0000 598443.0000 599235.0000 599435.0000 599683.0000 599775.0000 600079.0000 600419.0000 600639.0000 600731.0000 600739.0000 600947.0000 601135.0000 601143.0000 601407.0000 601759.0000 602031.0000 602339.0000 602359.0000 602367.0000 602699.0000 602735.0000 602819.0000 603071.0000 603183.0000 603267.0000 603339.0000 603387.0000 603391.0000 603487.0000 603495.0000 603623.0000 603643.0000 603703.0000 603711.0000 603727.0000 603739.0000 604867.0000 605115.0000 605159.0000 605203.0000 605659.0000 605799.0000 605811.0000 605883.0000 606063.0000 606107.0000 606175.0000 606335.0000 606463.0000 606599.0000 606695.0000 606783.0000 606847.0000 607043.0000 607551.0000 607587.0000 607639.0000 607763.0000 607879.0000 607907.0000 608007.0000 608079.0000 608087.0000 608311.0000 608355.0000 608371.0000 608383.0000 608391.0000 608463.0000 608699.0000 609343.0000 609523.0000 609631.0000 609659.0000 609763.0000 609895.0000 611295.0000 611311.0000 611439.0000 611467.0000 611707.0000 611723.0000 611783.0000 611823.0000 611979.0000 612515.0000 612679.0000 612691.0000 612891.0000 613011.0000 613083.0000 613099.0000 613107.0000 613127.0000 613155.0000 613295.0000 613299.0000 613307.0000 613315.0000 613383.0000 613471.0000 613475.0000 613559.0000 613759.0000 614235.0000 614271.0000 614523.0000 614703.0000 614763.0000 614787.0000 614839.0000 614895.0000 614903.0000 615075.0000 615111.0000 615139.0000 615183.0000 615231.0000 615243.0000 615403.0000 615599.0000 615679.0000 616175.0000 616239.0000 616283.0000 616479.0000 616591.0000 616659.0000 616735.0000 616767.0000 616871.0000 616875.0000 617303.0000 617327.0000 617927.0000 618211.0000 618263.0000 618275.0000 618487.0000 618647.0000 618751.0000 618999.0000 619103.0000 619243.0000 619351.0000 619675.0000 619691.0000 619695.0000 619775.0000 619895.0000 620163.0000 620207.0000 620755.0000 620835.0000 620987.0000 621059.0000 621227.0000 621371.0000 621499.0000 621591.0000 621599.0000 621611.0000 621907.0000 621963.0000 622547.0000 623151.0000 623187.0000 623203.0000 623567.0000 623759.0000 624051.0000 624339.0000 624435.0000 624615.0000 624631.0000 624663.0000 624699.0000 624991.0000 625583.0000 625615.0000 625655.0000 625771.0000 625811.0000 625927.0000 625979.0000 625995.0000 626099.0000 626175.0000 626243.0000 626399.0000 627119.0000 627207.0000 627271.0000 627459.0000 627483.0000 627551.0000 627599.0000 627663.0000 627803.0000 627835.0000 628635.0000 628651.0000 628963.0000 629103.0000 629195.0000 629203.0000 629359.0000 629455.0000 629663.0000 629967.0000 630283.0000 630391.0000 630399.0000 630531.0000 630563.0000 630995.0000 631027.0000 631227.0000 631307.0000 631523.0000 632023.0000 632051.0000 632451.0000 633035.0000 633531.0000 633635.0000 633751.0000 633983.0000 634303.0000 635007.0000 635143.0000 635179.0000 635259.0000 635283.0000 635335.0000 635343.0000 635459.0000 635515.0000 635583.0000 635703.0000 635863.0000 636039.0000 636903.0000 636979.0000 637103.0000 637135.0000 637195.0000 637203.0000 637231.0000 637243.0000 637263.0000 637291.0000 637475.0000 637551.0000 637679.0000 637727.0000 637747.0000 638227.0000 638419.0000 638459.0000 638579.0000 638951.0000 639039.0000 639167.0000 639243.0000 639843.0000 640095.0000 640147.0000 640287.0000 640475.0000 640611.0000 640751.0000 640759.0000 640783.0000 640827.0000 640895.0000 641663.0000 641675.0000 641691.0000 641711.0000 641907.0000 641983.0000 642051.0000 642171.0000 642451.0000 642467.0000 643059.0000 643359.0000 643367.0000 643371.0000 643507.0000 643755.0000 643831.0000 643951.0000 643963.0000 644515.0000 644591.0000 644595.0000 644659.0000 644723.0000 644859.0000 644923.0000 644987.0000 645175.0000 645459.0000 645783.0000 646203.0000 646231.0000 646351.0000 646359.0000 646575.0000 646611.0000 646631.0000 646727.0000 646743.0000 646803.0000 646811.0000 647019.0000 647283.0000 647367.0000 647435.0000 647479.0000 647607.0000 647655.0000 647803.0000 647947.0000 647975.0000 648747.0000 649111.0000 649143.0000 649239.0000 649247.0000 649475.0000 649483.0000 649519.0000 649547.0000 649575.0000 649583.0000 649615.0000 650063.0000 650595.0000 650843.0000 650903.0000 651119.0000 651163.0000 651235.0000 651263.0000 651323.0000 651735.0000 652071.0000 652215.0000 652435.0000 652487.0000 652511.0000 652567.0000 652723.0000 652771.0000 652947.0000 653039.0000 653055.0000 653135.0000 653143.0000 653351.0000 653383.0000 653619.0000 653839.0000 653915.0000 654019.0000 654115.0000 654147.0000 654243.0000 654343.0000 654519.0000 654587.0000 654667.0000 655163.0000 655687.0000 655955.0000 655987.0000 656107.0000 656147.0000 656227.0000 656267.0000 656331.0000 656351.0000 656403.0000 656435.0000 656743.0000 656863.0000 657307.0000 657391.0000 657455.0000 657467.0000 657543.0000 657639.0000 657895.0000 657951.0000 658027.0000 658163.0000 658383.0000 658391.0000 658683.0000 658695.0000 658723.0000 659071.0000 659119.0000 659383.0000 659463.0000 659799.0000 659951.0000 660147.0000 660343.0000 660643.0000 660699.0000 660739.0000 661171.0000 661279.0000 661339.0000 661411.0000 661495.0000 662171.0000 662283.0000 662355.0000 662383.0000 662427.0000 662539.0000 662719.0000 662727.0000 662755.0000 662803.0000 662895.0000 662939.0000 662951.0000 663039.0000 663063.0000 663299.0000 663903.0000 663907.0000 663959.0000 664135.0000 664239.0000 664307.0000 664547.0000 664619.0000 664843.0000 665019.0000 665063.0000 665175.0000 665195.0000 665347.0000 665395.0000 665551.0000 665683.0000 665687.0000 665787.0000 665855.0000 665891.0000 665931.0000 665943.0000 665951.0000 665967.0000 666111.0000 666159.0000 666255.0000 666275.0000 666439.0000 666455.0000 666511.0000 666523.0000 667059.0000 667123.0000 667179.0000 667207.0000 667475.0000 667695.0000 668111.0000 668199.0000 668263.0000 668579.0000 668715.0000 668723.0000 668891.0000 668999.0000 669339.0000 669851.0000 670007.0000 670543.0000 670615.0000 670687.0000 670951.0000 671211.0000 671615.0000 671631.0000 671871.0000 672015.0000 673123.0000 673179.0000 673319.0000 673331.0000 673459.0000 673623.0000 673767.0000 674207.0000 674455.0000 674651.0000 674723.0000 674867.0000 675019.0000 675083.0000 675107.0000 675207.0000 675279.0000 675699.0000 675831.0000 676199.0000 676307.0000 676403.0000 676431.0000 676903.0000 677223.0000 677607.0000 677671.0000 677795.0000 677799.0000 677827.0000 678107.0000 678115.0000 678163.0000 678555.0000 679115.0000 679143.0000 679295.0000 679463.0000 679507.0000 679671.0000 679999.0000 680235.0000 680631.0000 680815.0000 680847.0000 680995.0000 681047.0000 681151.0000 681355.0000 681483.0000 681515.0000 681523.0000 681547.0000 681779.0000 681931.0000 682351.0000 683199.0000 683603.0000 683631.0000 683963.0000 684051.0000 684323.0000 684511.0000 685039.0000 685215.0000 685267.0000 685439.0000 685555.0000 685599.0000 685687.0000 685807.0000 686111.0000 686287.0000 686347.0000 687327.0000 687431.0000 688035.0000 688055.0000 688251.0000 688263.0000 688659.0000 688779.0000 688995.0000 689163.0000 689167.0000 689235.0000 689327.0000 689343.0000 689599.0000 689603.0000 689683.0000 689835.0000 689843.0000 689995.0000 690099.0000 690199.0000 690455.0000 690747.0000 690931.0000 690963.0000 691171.0000 691187.0000 691215.0000 691291.0000 691367.0000 691555.0000 691587.0000 691659.0000 692179.0000 692291.0000 692455.0000 692683.0000 693179.0000 693183.0000 693267.0000 693307.0000 693311.0000 693495.0000 693539.0000 694155.0000 694183.0000 694271.0000 694363.0000 694435.0000 694567.0000 695015.0000 695323.0000 695479.0000 695587.0000 695615.0000 696295.0000 696439.0000 696451.0000 696491.0000 696587.0000 697019.0000 697059.0000 697127.0000 697187.0000 697223.0000 697603.0000 697683.0000 697743.0000 697911.0000 698083.0000 698131.0000 698147.0000 698459.0000 698587.0000 698667.0000 698707.0000 698995.0000 699079.0000 699087.0000 699127.0000 699315.0000 699455.0000 699687.0000 699723.0000 699795.0000 700127.0000 700211.0000 700531.0000 700663.0000 700699.0000 700811.0000 700827.0000 700839.0000 700855.0000 701075.0000 701079.0000 701095.0000 701151.0000 701155.0000 701199.0000 701323.0000 701735.0000 701827.0000 702151.0000 702183.0000 702239.0000 702347.0000 702383.0000 702391.0000 702435.0000 702443.0000 702451.0000 702583.0000 702591.0000 702643.0000 702763.0000 702799.0000 703183.0000 703223.0000 703407.0000 703415.0000 703503.0000 703667.0000 703735.0000 703991.0000 704215.0000 704247.0000 704311.0000 704371.0000 704407.0000 704543.0000 704583.0000 704603.0000 704619.0000 704651.0000 704663.0000 704667.0000 704747.0000 704795.0000 704923.0000 705087.0000 705287.0000 705367.0000 705531.0000 705623.0000 705699.0000 705755.0000 705819.0000 705839.0000 705875.0000 705939.0000 706015.0000 706039.0000 706111.0000 706171.0000 706175.0000 706179.0000 706223.0000 706263.0000 706459.0000 706463.0000 706475.0000 706507.0000 706511.0000 706659.0000 706831.0000 706899.0000 706979.0000 707023.0000 707231.0000 707375.0000 707399.0000 707463.0000 707639.0000 707651.0000 707703.0000 707739.0000 707759.0000 707911.0000 707939.0000 708011.0000 708063.0000 708111.0000 708167.0000 708175.0000 708211.0000 708259.0000 708295.0000 708347.0000 708359.0000 708363.0000 708375.0000 708391.0000 708559.0000 708671.0000 708719.0000 708747.0000 708839.0000 709063.0000 709095.0000 709103.0000 709107.0000 709155.0000 709443.0000 709615.0000 709623.0000 709659.0000 709767.0000 709787.0000 709851.0000 709863.0000 709971.0000 710027.0000 710107.0000 710131.0000 710139.0000 710219.0000 710259.0000 710471.0000 710643.0000 710831.0000 711387.0000 711439.0000 711443.0000 711471.0000 711519.0000 711639.0000 711715.0000 711783.0000 712099.0000 712111.0000 712143.0000 712235.0000 712267.0000 712291.0000 712495.0000 712507.0000 712827.0000 713063.0000 713079.0000 713175.0000 713183.0000 713243.0000 713359.0000 713363.0000 713399.0000 713419.0000 713471.0000 713527.0000 713567.0000 713643.0000 713647.0000 713815.0000 713859.0000 713939.0000 713971.0000 713991.0000 714059.0000 714211.0000 715071.0000 715371.0000 715407.0000 715451.0000 715455.0000 715523.0000 715563.0000 715567.0000 715683.0000 715691.0000 715751.0000 715759.0000 715783.0000 715799.0000 715839.0000 716095.0000 716199.0000 716215.0000 716247.0000 716395.0000 716423.0000 716543.0000 716799.0000 716887.0000 716911.0000 717299.0000 717367.0000 717435.0000 717583.0000 717615.0000 717639.0000 717691.0000 717715.0000 717811.0000 718027.0000 718035.0000 718043.0000 718091.0000 718123.0000 718563.0000 718911.0000 718919.0000 718959.0000 718971.0000 719007.0000 719059.0000 719063.0000 719123.0000 719191.0000 719279.0000 719295.0000 719383.0000 719387.0000 719511.0000 719639.0000 719731.0000 719759.0000 719791.0000 719863.0000 719875.0000 719975.0000 719999.0000 720051.0000 720059.0000 720067.0000 720107.0000 720155.0000 720167.0000 720171.0000 720251.0000 720579.0000 720671.0000 720935.0000 721067.0000 721155.0000 721175.0000 721179.0000 721199.0000 721215.0000 721359.0000 721371.0000 721427.0000 721443.0000 721595.0000 721659.0000 721679.0000 721739.0000 721783.0000 721787.0000 721823.0000 721827.0000 721891.0000 721919.0000 721927.0000 721939.0000 722007.0000 722023.0000 722027.0000 722047.0000 722099.0000 722119.0000 722143.0000 722263.0000 722447.0000 722763.0000 722795.0000 723011.0000 723039.0000 723047.0000 723135.0000 723187.0000 723199.0000 723295.0000 723375.0000 723427.0000 723443.0000 723507.0000 723527.0000 723591.0000 723639.0000 723663.0000 723731.0000 723795.0000 723871.0000 724291.0000 724555.0000 724655.0000 724719.0000 724723.0000 724747.0000 724803.0000 724871.0000 724879.0000 724927.0000 724939.0000 725043.0000 725055.0000 725071.0000 725075.0000 725131.0000 725151.0000 725167.0000 725183.0000 725211.0000 725331.0000 726131.0000 726263.0000 726367.0000 726395.0000 726423.0000 726435.0000 726475.0000 726503.0000 726507.0000 726511.0000 726551.0000 726579.0000 726791.0000 726807.0000 726811.0000 726819.0000 726979.0000 727043.0000 727103.0000 727227.0000 727471.0000 727515.0000 727631.0000 728003.0000 728079.0000 728119.0000 728139.0000 728207.0000 728223.0000 728279.0000 728287.0000 728443.0000 728455.0000 728567.0000 728775.0000 728779.0000 728899.0000 728919.0000 728943.0000 729479.0000 729515.0000 729527.0000 729543.0000 729711.0000 