<?xml version="1.0"?>
<VTKFile type="ImageData" version="1.0" byte_order="LittleEndian" header_type="UInt64">
<ImageData WholeExtent="0 25 0 25 1 1"
 Origin="0.0000 0.0000 0.0000" Spacing="0.6000 0.6000 0.6000">
<Piece Extent="0 25 0 25 1 1">
<PointData>
<DataArray Name="TEMPERATURE" NumberOfComponents="1" type="Float32" format="ascii">
21.2 22.7 23.4 23.6 24.1 24.4 25.0 25.3 25.5 25.7 26.0 26.1 26.2 26.1 26.9 27.9 29.2 31.9 35.6 36.3 33.8 30.8 28.3 27.2 27.1 30.3 23.0 24.1 24.7 25.3 25.7 26.1 27.1 27.7 28.1 28.5 28.8 28.9 28.9 28.7 28.7 29.0 30.5 33.7 36.5 36.0 33.2 30.9 29.3 28.8 30.0 35.4 24.2 25.0 25.7 26.4 27.1 27.7 28.5 29.0 29.6 30.2 30.7 30.7 30.4 29.8 29.2 29.3 31.4 34.9 36.5 34.7 31.7 30.2 30.3 31.4 34.5 42.0 24.1 25.2 26.2 27.2 28.1 28.5 28.8 29.3 30.1 30.4 30.1 29.2 28.5 27.8 28.2 31.0 35.2 38.4 39.2 37.4 34.0 32.0 33.2 36.5 41.0 46.2 24.2 25.4 26.6 27.6 28.5 29.4 30.2 30.6 30.9 30.7 29.8 28.7 28.0 27.9 29.4 33.1 37.6 40.7 42.7 42.4 38.2 34.4 36.5 43.0 48.4 48.2 23.8 25.2 26.7 27.8 28.8 29.9 30.9 30.8 30.4 30.0 29.2 28.3 28.0 28.6 30.3 33.2 36.8 41.2 45.4 46.5 41.7 36.8 40.8 48.0 49.1 44.4 23.3 24.9 26.9 28.5 29.4 29.9 30.7 30.6 30.5 30.2 29.4 28.7 28.4 28.9 30.5 33.2 36.7 41.2 46.0 48.7 45.9 42.2 46.5 50.0 45.7 39.6 23.4 25.2 27.5 29.2 29.8 29.7 29.8 29.5 29.8 29.9 29.7 29.4 29.3 29.5 30.7 32.9 36.0 40.1 44.2 46.6 45.7 44.8 47.6 48.1 43.2 39.0 23.7 25.6 27.8 29.4 30.0 29.4 28.8 28.2 28.6 29.3 29.6 29.5 29.2 29.6 30.9 33.1 35.7 38.2 40.2 40.5 40.0 41.7 44.6 44.4 42.4 44.2 23.6 25.9 28.2 28.8 28.9 28.4 27.8 27.3 27.4 28.0 28.6 28.8 28.7 29.4 31.6 34.3 35.7 35.5 35.2 34.7 34.5 37.3 41.3 42.2 42.7 48.7 24.1 26.7 29.0 28.7 28.3 27.7 27.2 26.8 26.6 27.0 27.6 28.0 28.3 29.6 32.0 34.3 34.8 33.8 32.8 31.6 31.6 36.6 45.1 48.7 46.4 48.1 25.8 28.0 29.5 28.6 28.1 27.5 27.0 26.8 26.6 26.6 27.1 27.5 28.2 29.9 31.8 32.9 32.9 32.0 30.5 29.0 30.6 41.3 56.1 59.3 52.0 47.7 26.8 28.5 29.6 28.8 28.0 27.5 27.3 27.2 26.8 26.5 26.7 27.3 28.4 30.0 31.4 32.0 31.7 30.8 29.2 28.1 33.4 49.9 64.0 62.7 56.1 50.3 26.0 27.3 28.6 28.4 28.2 28.0 27.9 27.6 27.1 26.8 26.9 27.6 28.6 29.7 30.5 30.8 30.7 30.0 28.8 30.4 41.7 58.9 64.9 62.0 61.1 55.4 24.2 25.5 27.3 28.2 28.6 28.9 28.8 28.4 27.9 27.6 27.5 28.0 28.9 29.6 29.9 30.2 30.6 30.3 30.0 34.7 49.0 61.5 60.4 59.1 62.7 59.3 22.5 24.0 26.4 27.9 28.9 29.8 29.9 29.4 29.0 28.5 28.2 28.6 29.6 29.9 29.9 30.5 31.3 31.3 31.5 37.1 49.1 56.4 53.3 51.8 56.4 59.0 22.1 23.5 25.6 27.4 29.1 30.5 31.1 30.8 30.1 29.2 28.7 29.1 30.0 30.2 30.3 31.3 32.1 32.1 33.0 37.9 46.1 50.8 47.3 43.0 46.6 54.5 22.4 23.8 25.3 26.4 28.2 30.1 31.6 32.0 31.4 30.2 29.4 29.5 30.3 30.5 30.8 31.6 31.9 32.4 35.2 39.7 44.7 47.2 42.2 37.3 42.1 54.7 23.5 24.7 25.4 25.4 26.5 28.5 30.7 32.1 32.4 31.4 30.2 30.2 30.8 30.8 30.9 30.9 30.9 33.1 38.3 43.2 45.6 43.2 37.3 37.9 49.9 70.7 25.3 26.1 26.2 25.8 26.4 28.0 30.4 33.0 34.1 32.5 30.6 30.5 30.9 31.0 30.9 30.0 29.8 34.0 41.0 44.0 41.8 37.0 36.1 45.1 67.1 98.3 27.1 28.0 28.2 27.5 27.9 30.0 33.6 36.3 35.6 32.1 29.9 29.7 30.5 31.4 31.5 30.0 31.4 36.6 39.6 38.5 35.8 34.1 40.6 59.4 89.9 123.1 26.6 28.8 30.4 29.9 30.0 31.9 35.4 37.1 35.1 30.9 28.6 28.6 29.5 30.9 31.0 29.1 30.3 33.9 34.8 35.8 36.9 35.6 43.5 67.7 98.7 126.5 24.2 26.8 29.1 29.2 29.9 31.0 32.9 34.5 34.9 32.1 29.2 28.8 28.6 29.6 30.7 29.2 27.8 28.4 32.3 38.8 39.7 35.5 40.5 63.4 97.1 125.6 23.1 24.7 25.9 26.6 28.3 29.5 30.9 32.8 34.9 34.0 31.4 30.3 29.4 29.4 31.0 30.7 29.0 28.1 31.3 38.8 42.4 38.4 41.0 63.8 94.4 112.3 23.0 24.5 25.3 26.3 28.4 29.7 30.7 31.7 32.9 33.5 33.1 33.1 32.8 31.2 30.3 30.0 29.3 28.6 30.9 37.6 45.3 46.2 44.2 58.3 81.3 91.6 23.2 24.9 26.0 26.9 29.1 30.3 30.7 30.5 30.6 31.8 33.5 34.9 35.2 32.8 30.3 29.4 28.8 28.9 32.0 37.6 44.6 52.2 49.6 48.8 65.3 66.4 
</DataArray>
</PointData>
</Piece>
</ImageData>
</VTKFile>
