<?xml version="1.0"?>
<VTKFile type="PolyData" version="1.0" byte_order="LittleEndian" header_type="UInt64">
<PolyData>
<Piece NumberOfPoints="393" NumberOfVerts="0" NumberOfLines="0" NumberOfPolys="0">
    <Points>
        <DataArray type="Float32" NumberOfComponents="3" format="ascii">
        14.7145 3.1310 6.3913 12.9764 10.1266 4.5487 9.3244 10.3874 6.9286 12.2603 13.6698 5.3394 12.5743 6.2268 7.7790 13.5967 10.1258 5.7569 14.6762 10.8999 8.0367 13.6766 10.8912 3.4378 13.4373 10.9493 3.2970 14.8641 10.1412 3.4365 14.7787 9.6540 4.5367 14.4780 9.4861 4.8739 13.9803 11.5716 2.0655 14.7755 11.5623 7.9367 14.9359 11.0512 5.0656 14.6385 9.2603 5.2735 13.5888 9.5437 6.6975 14.4413 10.0442 4.3031 14.1495 11.1960 7.9504 14.1905 11.4015 4.3940 14.3056 13.9052 4.5042 14.7189 11.3486 7.3364 14.3439 11.4991 7.9680 14.8190 11.1352 2.3844 14.6818 11.1929 4.5126 9.3146 10.0334 7.6066 14.5151 7.7558 5.1548 14.5072 7.6674 5.4433 14.6962 11.3351 4.8887 14.1966 7.0890 6.1957 14.2591 12.3214 2.0256 14.4808 7.4465 5.9920 14.9664 7.8076 4.9097 13.3707 9.3121 7.9964 12.9018 7.6346 8.1039 12.6092 6.8415 8.0928 14.9280 8.4375 1.3701 14.9344 8.5586 1.1323 14.7985 8.2092 1.6279 14.4779 6.3718 4.0624 14.9829 7.6019 2.5395 12.5256 4.8323 7.3394 14.6108 7.9421 1.9548 14.6424 7.8212 2.1438 14.7377 7.4175 2.7841 14.6665 7.1835 3.1412 13.4593 5.0460 5.6238 14.2412 12.7648 0.6319 14.2936 12.7994 0.8225 14.1015 14.2907 4.2586 14.3161 5.2551 4.9607 14.3806 5.6480 4.7104 14.2129 6.8427 3.7851 13.6819 13.1151 4.1931 14.5222 12.4264 0.6361 13.8933 12.5814 2.2093 14.4674 12.5175 0.0775 14.6908 12.2373 0.0256 14.3738 12.6412 0.7806 14.3452 12.6473 1.4202 14.5376 12.4053 0.3783 14.3671 12.6995 1.1142 14.5506 12.3970 0.1556 14.8732 6.4346 5.0647 14.4602 7.1037 5.7044 14.7458 8.1440 4.4548 14.6791 7.8423 6.1282 14.6930 9.1582 3.8265 14.9463 7.9563 4.5659 14.6814 8.4742 4.2306 14.6343 7.4050 5.4350 14.7940 9.0461 4.2449 14.7730 7.8359 4.7853 14.2746 6.4964 6.0913 14.7575 8.3486 5.1654 14.5628 8.6688 4.8452 14.7313 9.6142 3.9586 14.5405 9.2808 4.3926 14.6520 8.0207 4.7898 14.5041 8.5264 4.8565 14.8601 7.7544 3.0849 14.3360 6.3883 6.6029 14.5536 8.8704 4.9835 14.5266 8.4989 4.7836 14.1164 10.6893 6.1169 14.7827 12.0569 5.2942 12.0654 11.5298 5.2635 13.8566 11.5947 5.5885 13.9793 7.4438 5.5921 13.6391 11.6891 4.9408 14.7078 9.6708 4.1252 14.1777 7.8846 5.9400 14.8323 9.8086 4.8450 14.3559 11.4601 5.1841 14.5134 9.0169 5.0887 14.3863 10.3948 4.7785 14.6296 7.1959 5.4437 14.7772 6.9939 5.4576 14.3306 6.8601 5.4337 14.7298 11.9311 1.6485 13.1539 10.2440 6.4838 14.6213 10.7598 4.4274 13.9419 5.8441 6.2270 14.4949 11.7087 5.3277 14.0316 7.1508 6.0021 14.9831 12.8252 5.6508 14.1731 7.2352 5.4361 13.9021 11.6361 5.5511 14.1659 7.6682 4.9599 14.5880 8.0038 3.6457 14.2606 10.9923 4.5166 13.1616 5.9133 7.0126 12.9073 11.0776 4.9524 14.1845 7.6093 6.2965 14.3962 7.4182 6.4384 14.0263 6.5545 5.3513 14.6661 8.1191 4.5054 13.0166 12.2568 5.2968 14.5626 13.7923 5.2520 12.6726 9.6014 7.1972 14.7867 6.3583 5.1900 13.6286 6.8075 6.4186 13.3168 11.8060 5.0250 14.8812 10.7815 3.4352 14.9463 9.8004 3.3997 12.7946 13.6424 4.9928 14.2798 11.7077 5.2761 14.5412 8.5728 6.7634 12.2729 11.5064 3.9360 13.6428 11.8250 5.5499 14.5715 6.9117 5.2117 14.1648 6.8271 6.0616 14.0492 6.8632 7.1134 13.3174 5.3317 6.8823 13.6467 6.5646 6.9306 14.5866 13.5570 5.0329 14.8528 10.2390 3.6905 12.0143 11.9735 4.4726 11.6135 13.7848 6.1102 11.9646 11.3200 4.3318 13.0179 11.2765 5.0384 11.2271 9.6541 7.8894 14.9332 4.5561 6.7151 14.6533 6.3339 5.3038 14.9040 9.9447 2.4309 14.8614 9.6255 5.8582 14.9234 8.7637 3.5631 14.2014 11.9262 4.9899 13.1105 5.0762 6.5719 14.4962 11.1730 4.7257 12.1353 11.3044 3.8585 13.3738 12.0310 4.6421 14.0995 6.4211 6.7382 14.2338 12.7861 4.9294 14.7637 3.4984 7.4014 13.9198 5.5777 6.3569 14.9503 8.1396 4.0003 14.7582 11.5461 2.2659 13.9851 6.2054 6.2079 14.5709 11.4700 4.6814 12.2982 9.9226 6.3135 14.3325 6.1888 5.5402 13.8758 10.8968 4.7997 14.3093 6.1560 5.8363 12.0394 11.3943 6.3408 14.6121 11.9684 4.7910 11.8081 13.4485 4.6254 13.3859 11.9862 4.7588 14.6509 7.0050 5.4981 11.9461 9.1375 6.3800 14.2933 13.7287 3.5130 13.5495 12.7820 5.9566 14.5553 11.3685 2.9682 13.4849 11.3744 4.6172 12.5748 12.1416 5.4684 14.7829 8.1671 5.1850 13.3153 11.7308 4.8644 14.1861 12.8922 3.4748 14.1702 13.1750 4.4308 13.8053 9.0840 6.0417 14.8701 13.3968 6.2498 14.0263 6.4743 7.0311 14.9942 9.6448 4.0926 14.3784 7.9283 6.0262 14.6868 11.3120 3.0446 14.5113 12.0043 3.7948 14.4249 11.7208 3.2729 11.5264 12.3202 6.6369 14.2258 13.5204 2.8363 14.2174 7.9832 6.1461 14.0327 12.1495 5.0628 14.2066 10.0146 3.7510 13.3422 12.1065 4.1719 14.9030 10.6575 2.3630 13.9479 14.2244 7.9320 14.2174 7.6372 6.0966 13.7952 12.4242 4.0630 14.5468 11.5855 3.6830 14.3420 10.5940 3.6999 10.0714 14.7416 6.8289 13.5901 9.4609 5.2767 13.4433 4.4506 6.8147 13.5545 12.8634 5.9685 13.2010 14.2912 5.8851 14.3897 11.7290 3.3371 12.6277 9.5173 5.3060 14.6225 9.9834 4.1460 13.5647 10.4308 5.2756 12.2412 14.3636 5.1859 12.0708 12.2978 5.9634 14.0151 9.2862 4.9952 12.9434 9.3574 4.9965 13.8799 13.4979 7.9390 14.0736 12.1463 3.6398 14.4231 11.8832 3.9519 14.2712 8.5621 6.1384 12.2314 10.2948 6.1549 13.1771 11.0336 5.2886 14.4530 13.3258 5.8915 12.7270 9.6802 5.0465 13.7925 9.2595 5.1643 13.0835 12.7911 6.3418 13.8506 12.6267 4.3983 14.4223 11.5180 3.0587 12.2348 10.9777 6.9957 10.9641 14.5850 5.6080 12.4763 14.5482 4.6130 11.1809 13.9796 6.4114 14.0144 12.2504 3.6760 13.8668 10.3929 4.4771 14.0805 12.0996 3.5749 11.8151 13.3300 3.8747 14.5392 12.5203 3.1319 13.8684 13.3992 7.2240 14.3844 12.0277 1.9424 14.4180 12.6036 2.2776 12.2244 10.2519 5.3936 12.8668 9.6855 4.9199 14.3026 13.3677 2.4795 14.1865 10.4479 4.2248 13.2341 11.7501 3.9088 11.6283 14.0396 6.3559 12.0358 11.6993 4.3697 11.9538 9.3619 6.0176 13.6157 9.8615 4.1310 12.0613 14.2254 4.3462 14.3970 12.6050 5.8635 14.6039 9.9842 3.4110 13.5199 11.8486 3.6278 13.0230 12.7531 6.2619 14.8688 13.0601 7.0986 14.4455 12.6270 0.9341 12.0831 9.9805 5.7172 14.2847 10.5268 3.9448 14.5428 13.4131 4.7847 12.6094 13.2476 5.7248 10.1888 14.3128 6.0794 13.8234 12.5426 4.4296 11.0542 11.9931 6.4461 13.3289 9.5649 4.9017 14.0545 12.4048 5.8196 12.6457 10.5126 4.6189 12.0161 10.4818 5.8895 12.2962 11.0637 4.3142 14.6547 11.8424 4.4185 13.7777 12.5285 4.4851 12.9604 12.1749 5.2649 14.2533 12.7976 3.4141 12.5308 13.4554 6.4419 10.4888 14.0544 6.0344 11.9079 14.0421 5.0013 14.6024 12.4816 4.5094 11.0864 13.8773 6.0347 11.8167 12.7860 5.1507 14.4181 13.0418 4.7876 14.1602 12.3292 3.9500 11.1903 13.9994 6.7524 14.2571 13.9411 6.0309 14.2187 12.7439 3.3810 14.0285 14.4123 6.1826 14.6552 12.7919 4.5200 11.8691 10.4725 5.6757 14.3628 13.0184 4.3922 11.6874 10.8946 5.5099 12.1900 11.3150 4.7520 14.0042 12.3521 5.3231 13.9798 14.1961 6.6358 14.7379 12.6310 5.5580 14.7879 10.5099 3.9416 12.9930 14.0805 5.2616 12.5590 14.4680 6.5541 13.4415 11.8779 4.9895 14.0173 10.9517 4.1859 14.2477 10.6012 4.0742 14.0934 10.9978 5.5586 14.1651 12.9957 3.6276 14.7156 12.8329 6.6999 14.1886 12.9465 4.3319 11.0903 10.1855 7.2320 12.4525 12.1591 5.0159 11.6731 14.1355 7.0475 12.6031 13.0697 5.3392 14.4638 11.9057 5.0412 14.1891 12.9973 7.3155 13.7412 12.2130 4.0954 11.5298 11.2390 6.8064 13.9058 12.2736 5.4794 11.1140 12.1445 7.0470 14.4056 11.8427 1.9861 14.7800 12.7669 6.4150 14.3735 11.9271 1.9789 11.3729 13.8548 6.6115 11.1813 10.9094 7.7601 14.1293 12.2480 6.2879 11.7377 14.4278 7.0560 11.0722 13.2111 6.5465 14.3509 12.0572 4.8967 14.7176 11.9647 6.8460 14.4834 12.5801 2.5225 14.2253 10.5936 6.3724 14.1556 12.1467 5.4133 12.9339 12.3708 6.3668 14.2703 12.5501 7.0589 14.9508 12.6105 6.1404 14.0197 10.9936 5.4663 11.2763 11.3769 7.4195 14.4478 10.6924 5.8381 14.5565 12.2951 2.5017 11.8314 10.7327 7.6063 13.4149 10.2986 6.9407 14.6551 12.2778 6.1778 13.1314 12.4336 5.3701 14.4458 11.9792 3.6717 13.9429 12.1160 5.2086 14.5370 12.1306 3.5861 14.1542 12.2140 5.1340 13.1961 14.7261 6.6710 14.1324 10.8764 5.8636 13.0760 14.1662 6.4446 13.1083 14.4536 6.7295 13.7371 11.5169 6.2547 12.0592 13.7995 6.4462 12.4385 9.4207 7.9468 9.8964 11.4188 7.7707 12.4555 8.3425 7.9955 14.3694 12.3410 6.6643 14.6827 9.6232 5.7465 11.4352 7.3322 7.8986 12.8906 8.0416 7.8868 12.1791 7.9424 8.1462 14.4255 10.0643 5.6230 14.8089 12.4844 5.9851 13.7026 12.4295 6.2290 10.1254 13.4469 7.2618 13.8750 10.2560 7.1943 13.9467 11.4519 6.0452 12.5904 9.0226 8.0154 11.1970 13.9101 7.1752 11.4649 7.7079 8.2590 11.7657 12.5682 7.0441 11.8851 13.5894 6.3028 14.6213 11.9174 5.7700 11.7941 8.3130 8.0152 14.1439 10.2257 6.6950 10.2638 13.5599 7.0927 11.4269 11.9553 7.3652 13.6541 12.0226 6.4975 13.6441 11.7984 6.6453 13.7046 9.4440 6.5737 9.9812 13.6861 7.2244 14.0066 10.4722 7.1548 12.4803 6.4953 8.0485 13.2109 12.7563 6.5763 12.4010 6.3291 8.1173 11.6047 13.8640 6.9215 12.2440 13.8873 6.6945 13.7864 10.7684 7.2282 12.6300 14.1662 6.6946 13.2194 11.3344 7.1269 13.4733 11.2376 7.0979 12.1111 13.5540 7.5011 14.4353 10.3874 6.4342 13.3980 8.9801 7.4352 13.8628 11.4727 6.7676 12.8423 11.9550 6.9809 13.8273 11.3365 6.9749 12.8453 7.3028 8.0889 14.0881 8.7430 6.7879 12.8128 9.4677 7.9779 13.8539 10.0657 7.1798 13.4099 8.0167 8.0478 13.8193 9.1710 6.9741 13.5111 7.8194 7.9472 
        </DataArray>
    </Points>
    <PointData>
        <DataArray type="Float32" Name="tag" format="ascii">
            8903.0000 46347.0000 46683.0000 48003.0000 48039.0000 49507.0000 49523.0000 52927.0000 54327.0000 54839.0000 55027.0000 56423.0000 56747.0000 56907.0000 58311.0000 59915.0000 59987.0000 61443.0000 61951.0000 61975.0000 62203.0000 63551.0000 63575.0000 69091.0000 69235.0000 72499.0000 76527.0000 79115.0000 80803.0000 80931.0000 82435.0000 82883.0000 86295.0000 98967.0000 99875.0000 103075.0000 104763.0000 104767.0000 106371.0000 106567.0000 106915.0000 109583.0000 111403.0000 112539.0000 112867.0000 114339.0000 114435.0000 114499.0000 114559.0000 117595.0000 117667.0000 119115.0000 119483.0000 126655.0000 130603.0000 131951.0000 143527.0000 146707.0000 148423.0000 154443.0000 166159.0000 167879.0000 169639.0000 169675.0000 175111.0000 176955.0000 177123.0000 177163.0000 177211.0000 177411.0000 177499.0000 179155.0000 179707.0000 179767.0000 181387.0000 183187.0000 183251.0000 183267.0000 183311.0000 183539.0000 184919.0000 185055.0000 185267.0000 185399.0000 186967.0000 187075.0000 187215.0000 187363.0000 187411.0000 187459.0000 188663.0000 188711.0000 188827.0000 188863.0000 189299.0000 189423.0000 189451.0000 190871.0000 191231.0000 191263.0000 191271.0000 191355.0000 192495.0000 192503.0000 193003.0000 193039.0000 193239.0000 193271.0000 193351.0000 193411.0000 194419.0000 194527.0000 194643.0000 194663.0000 194711.0000 194919.0000 194951.0000 196379.0000 196387.0000 196403.0000 196491.0000 196503.0000 196535.0000 196575.0000 196603.0000 196667.0000 196963.0000 196971.0000 197091.0000 197115.0000 197175.0000 197187.0000 198419.0000 198467.0000 198951.0000 199043.0000 199231.0000 200459.0000 200507.0000 200687.0000 200699.0000 200803.0000 200923.0000 201127.0000 201167.0000 202259.0000 202447.0000 202695.0000 202803.0000 202827.0000 202875.0000 202919.0000 202959.0000 204171.0000 204379.0000 204775.0000 204867.0000 204883.0000 206227.0000 206235.0000 206511.0000 206731.0000 206755.0000 206855.0000 208307.0000 210099.0000 210407.0000 210667.0000 210743.0000 210891.0000 210907.0000 213931.0000 213959.0000 213971.0000 214011.0000 214175.0000 214199.0000 214363.0000 214375.0000 214387.0000 214595.0000 214739.0000 215927.0000 216691.0000 217907.0000 217927.0000 217951.0000 218191.0000 218435.0000 218439.0000 218451.0000 218639.0000 218647.0000 218703.0000 219791.0000 219831.0000 219863.0000 220035.0000 220227.0000 220267.0000 220319.0000 220531.0000 220751.0000 221739.0000 221771.0000 222227.0000 222239.0000 222467.0000 222515.0000 222599.0000 222639.0000 222647.0000 222691.0000 223691.0000 223739.0000 223815.0000 223827.0000 223835.0000 224167.0000 224203.0000 224319.0000 224343.0000 225343.0000 225363.0000 225415.0000 225719.0000 225795.0000 226143.0000 227043.0000 227167.0000 227223.0000 227271.0000 227291.0000 227411.0000 227475.0000 227547.0000 227563.0000 227567.0000 228799.0000 228851.0000 228911.0000 228943.0000 228991.0000 229215.0000 229391.0000 229415.0000 229443.0000 229503.0000 229515.0000 230519.0000 230523.0000 230583.0000 230807.0000 231039.0000 231199.0000 231223.0000 232287.0000 232315.0000 232323.0000 232463.0000 232631.0000 232763.0000 232831.0000 232967.0000 233899.0000 233927.0000 233963.0000 234235.0000 234339.0000 234403.0000 234431.0000 234515.0000 234539.0000 234547.0000 234615.0000 235679.0000 235743.0000 235879.0000 235915.0000 235987.0000 236007.0000 236247.0000 236259.0000 236371.0000 236375.0000 236383.0000 237347.0000 237455.0000 237811.0000 237819.0000 237843.0000 237867.0000 237927.0000 238887.0000 240415.0000 240419.0000 240487.0000 240667.0000 241883.0000 242063.0000 242203.0000 242363.0000 242423.0000 242563.0000 242583.0000 243999.0000 244011.0000 244015.0000 244067.0000 244987.0000 245015.0000 245087.0000 245319.0000 245343.0000 246695.0000 246771.0000 246823.0000 246855.0000 246907.0000 246979.0000 247035.0000 247147.0000 248207.0000 248479.0000 248579.0000 248591.0000 248771.0000 249971.0000 250227.0000 250383.0000 250447.0000 250499.0000 250551.0000 250671.0000 251731.0000 252123.0000 252359.0000 253343.0000 253451.0000 253975.0000 254983.0000 255079.0000 255311.0000 255415.0000 255483.0000 255579.0000 256807.0000 257063.0000 257247.0000 258811.0000 258927.0000 258939.0000 259067.0000 260659.0000 261759.0000 261931.0000 262351.0000 262383.0000 262451.0000 262499.0000 262535.0000 262539.0000 263459.0000 263739.0000 263923.0000 263963.0000 265155.0000 265447.0000 265523.0000 265807.0000 267207.0000 267303.0000 267343.0000 267459.0000 268871.0000 270819.0000 270859.0000 271239.0000 272555.0000 272595.0000 272811.0000 272887.0000 272975.0000 274375.0000 274567.0000 275467.0000 275571.0000 275903.0000 276219.0000 280663.0000 281135.0000 282147.0000 282435.0000 
         </DataArray>
    </PointData>
</Piece>
</PolyData>
</VTKFile>