<?xml version="1.0"?>
<VTKFile type="ImageData" version="1.0" byte_order="LittleEndian" header_type="UInt64">
<ImageData WholeExtent="25 50 25 50 1 1"
 Origin="15.0000 15.0000 0.0000" Spacing="0.6000 0.6000 0.6000">
<Piece Extent="25 50 25 50 1 1">
<PointData>
<DataArray Name="TEMPERATURE" NumberOfComponents="1" type="Float32" format="ascii">
32.1 36.8 43.0 63.0 69.7 58.1 49.0 45.5 41.7 36.8 34.0 31.3 29.1 27.7 26.5 25.4 25.0 25.1 25.5 26.6 27.9 28.0 26.7 24.1 21.8 21.1 34.1 32.2 35.4 50.1 58.0 52.1 46.2 40.9 36.8 35.5 33.8 31.6 30.2 28.1 26.2 25.5 25.2 24.8 25.0 26.0 27.1 26.7 24.8 22.9 21.7 21.2 40.5 35.9 32.7 36.2 43.0 46.7 46.9 42.6 37.5 35.6 34.1 32.9 31.8 28.7 26.3 25.9 25.6 24.8 24.9 26.1 27.0 26.3 24.5 23.0 22.2 21.8 43.8 39.3 35.0 32.8 35.9 43.5 48.3 44.4 38.5 36.0 34.3 33.6 32.2 28.9 26.5 26.2 25.8 24.8 25.0 26.4 27.2 26.2 24.6 23.8 23.4 23.1 40.8 39.7 37.7 36.6 39.0 45.7 50.6 46.0 39.9 36.6 34.0 32.6 31.4 29.1 27.2 26.6 25.7 24.7 25.2 26.5 26.9 25.8 24.6 24.7 24.9 24.8 35.6 39.5 42.4 42.5 42.3 46.0 49.9 46.5 41.3 37.3 34.0 31.9 31.0 30.4 29.1 27.8 25.9 24.7 25.3 26.2 26.0 24.9 24.6 25.7 26.3 26.1 30.1 37.3 45.1 44.6 41.0 43.8 47.7 46.7 43.6 40.0 36.7 34.1 32.3 32.6 32.1 29.7 26.5 25.0 25.7 26.1 25.1 24.2 24.8 26.7 27.1 26.5 27.1 33.1 42.5 42.4 39.8 44.0 47.6 47.9 45.6 43.3 41.7 38.2 34.5 34.7 34.8 30.9 26.5 25.1 26.2 26.1 24.6 24.0 25.3 27.4 27.4 26.4 27.0 29.4 35.9 37.6 39.1 44.0 45.7 45.4 44.2 45.4 45.9 40.8 35.5 36.1 36.6 31.3 25.8 24.9 26.2 25.8 24.1 24.0 25.9 27.7 27.1 25.9 28.4 29.0 31.4 33.4 36.9 41.9 43.6 43.7 45.4 47.7 46.3 39.5 34.5 36.5 38.2 32.3 25.6 24.4 25.7 25.3 24.0 24.5 26.2 27.4 26.2 24.7 29.6 30.5 31.9 33.3 36.3 41.8 46.0 48.7 50.2 46.6 40.5 35.2 33.6 36.8 39.7 34.6 26.5 24.1 25.0 25.0 24.4 25.0 26.1 26.4 24.8 23.3 31.2 32.3 34.6 36.3 39.0 43.5 47.2 50.5 48.4 39.2 33.2 32.6 34.5 38.1 40.8 35.7 27.1 23.9 24.8 25.1 25.0 25.4 25.6 25.2 23.7 22.5 35.2 36.2 39.6 41.4 42.7 46.0 47.0 45.8 40.4 32.5 30.7 33.6 37.1 40.3 40.5 33.5 25.7 23.6 24.9 25.9 26.1 26.1 25.4 24.6 23.4 22.5 39.6 40.8 43.8 44.4 44.5 47.8 48.1 42.4 35.5 31.1 31.8 36.0 39.9 41.6 38.2 29.7 23.9 23.5 25.4 27.3 28.2 27.8 26.1 25.0 24.0 23.2 40.5 42.1 42.7 41.2 41.9 44.0 43.8 39.5 34.5 31.7 32.3 36.5 40.0 39.7 34.0 26.6 23.2 23.6 25.9 29.0 31.0 30.7 28.4 26.3 24.9 23.9 37.9 39.3 38.3 35.2 36.1 35.1 34.0 34.5 33.3 31.0 29.7 32.7 36.4 35.5 29.9 25.0 23.6 24.2 26.7 30.3 33.3 34.1 31.9 28.9 25.9 24.0 34.5 34.3 33.2 31.2 31.0 28.1 27.1 29.8 30.4 28.0 25.5 27.8 32.1 31.8 27.4 24.7 24.5 25.5 27.7 30.9 34.4 36.3 35.3 32.5 27.8 24.7 32.3 30.1 29.1 28.9 28.0 25.2 25.2 27.3 27.4 25.3 23.6 25.0 28.9 29.4 26.6 25.1 25.3 26.7 28.8 31.4 34.3 37.0 37.7 36.1 31.0 27.2 30.4 28.6 27.7 27.4 26.4 24.1 24.4 26.8 27.2 25.6 24.2 24.3 26.4 27.8 26.9 26.1 26.2 27.5 29.7 31.9 33.7 36.2 38.1 37.8 33.2 29.2 28.4 29.3 29.0 27.1 25.4 23.6 23.4 25.9 27.5 27.0 25.9 25.0 25.4 27.1 28.1 28.1 28.0 28.7 30.1 31.1 31.2 32.3 34.9 36.1 32.1 28.3 27.5 30.0 30.6 27.6 24.9 23.5 23.0 24.7 26.7 27.7 28.2 27.2 26.3 27.8 29.8 30.7 30.9 30.8 30.1 28.3 26.0 25.8 28.5 30.8 27.9 24.8 27.7 29.7 31.1 29.1 26.1 24.7 24.4 24.8 25.6 28.0 30.6 30.0 28.5 29.6 32.1 34.0 34.6 33.5 30.2 25.4 21.9 21.2 22.7 24.2 22.9 21.4 29.5 30.4 31.5 31.2 29.1 27.4 26.7 25.5 24.6 27.2 31.7 32.3 30.6 31.8 34.7 36.9 37.7 35.7 30.3 23.9 20.6 20.1 20.3 20.6 20.4 20.1 33.1 33.1 32.5 32.2 30.7 28.8 26.9 25.1 24.0 25.8 31.3 33.8 32.7 33.9 36.8 38.5 39.1 37.1 31.1 24.1 20.6 20.1 20.1 20.1 20.1 20.1 35.8 35.3 32.8 31.1 28.8 26.7 24.7 23.2 23.2 24.5 28.9 31.9 32.4 34.3 37.2 39.0 39.1 36.8 30.8 24.1 20.6 20.1 20.1 20.1 20.1 20.1 36.6 35.8 32.5 30.2 27.0 24.7 23.3 22.2 22.6 23.9 27.0 29.2 31.0 33.8 36.8 38.9 38.7 35.9 29.7 23.3 20.4 20.1 20.1 20.1 20.1 20.1 
</DataArray>
</PointData>
</Piece>
</ImageData>
</VTKFile>
