<?xml version="1.0"?>
<VTKFile type="PolyData" version="1.0" byte_order="LittleEndian" header_type="UInt64">
<PolyData>
<Piece NumberOfPoints="48" NumberOfVerts="0" NumberOfLines="0" NumberOfPolys="0">
    <Points>
        <DataArray type="Float32" NumberOfComponents="3" format="ascii">
        13.9597 16.8769 4.2164 13.5345 19.8882 4.0850 14.5709 18.2115 3.3332 11.4449 17.1566 6.5190 12.0452 15.6564 4.9896 12.7805 16.2108 3.6189 12.9569 18.9882 7.4592 13.3632 15.2145 3.5018 13.1697 15.7623 4.3152 12.0092 19.0337 6.8913 13.9146 21.2400 4.4970 11.9587 15.1782 5.1515 11.3641 18.6981 5.9068 12.3111 19.4888 7.2268 12.9571 17.4876 5.7447 12.6057 19.0007 6.9155 14.6415 20.5370 4.4608 12.1851 22.7294 5.4162 6.2249 15.0283 6.8793 14.7386 16.6481 5.9491 13.3575 16.9932 5.1391 10.4615 24.7610 7.0618 14.7194 18.5765 4.8167 9.8251 19.1075 6.2299 12.4916 15.7726 2.5235 14.6563 19.4163 3.7408 13.5067 15.7611 4.7941 11.2748 25.2981 6.9185 12.3919 17.2270 7.0371 14.5407 21.2515 5.1118 13.0598 15.5517 6.0236 14.5213 19.8009 4.5642 12.9769 15.4637 5.9607 14.3012 20.3725 4.3709 14.1046 18.3529 3.5926 11.8171 20.3257 6.3008 12.8451 15.7866 5.7729 12.9126 15.6530 6.5334 11.5967 15.0819 7.2491 10.1429 16.7785 7.6715 14.8967 22.9037 7.6116 14.0345 16.4445 6.4768 10.3535 15.2609 7.6135 13.7567 15.3500 5.7269 11.5289 19.2258 8.0246 10.0926 19.3819 7.9662 13.1463 15.3797 5.9961 13.8460 18.2606 7.7453 
        </DataArray>
    </Points>
    <PointData>
        <DataArray type="Float32" Name="tag" format="ascii">
            60211.0000 61527.0000 69355.0000 80803.0000 191227.0000 194451.0000 198903.0000 198911.0000 206583.0000 208275.0000 214123.0000 214139.0000 214695.0000 214779.0000 218135.0000 218459.0000 220255.0000 221755.0000 223775.0000 229103.0000 229199.0000 230691.0000 232843.0000 234459.0000 234715.0000 239363.0000 239399.0000 240563.0000 244007.0000 247167.0000 248479.0000 248515.0000 252143.0000 252223.0000 253507.0000 255683.0000 258863.0000 260199.0000 263399.0000 263843.0000 272947.0000 300819.0000 304119.0000 325967.0000 336623.0000 341227.0000 353399.0000 360823.0000 
         </DataArray>
    </PointData>
</Piece>
</PolyData>
</VTKFile>