<?xml version="1.0"?>
<VTKFile type="PolyData" version="1.0" byte_order="LittleEndian" header_type="UInt64">
<PolyData>
<Piece NumberOfPoints="405" NumberOfVerts="0" NumberOfLines="0" NumberOfPolys="0">
    <Points>
        <DataArray type="Float32" NumberOfComponents="3" format="ascii">
        8.9643 10.2173 5.2615 14.2243 13.7509 3.2172 14.0214 11.1319 3.4087 12.5164 6.9533 5.0088 12.4543 5.6870 5.5608 14.3479 10.7233 2.8006 14.7906 10.8402 7.6671 13.6646 10.1913 3.7366 14.6762 11.0791 6.7729 13.7821 9.9599 4.2235 12.4417 8.8928 4.5372 13.1158 11.0932 6.2440 14.0746 11.2488 5.4945 12.3037 9.2251 4.2053 10.6400 11.7204 6.9301 8.2535 9.3268 6.4588 14.5722 6.8850 6.5072 14.8330 7.8948 5.7770 14.1806 6.2764 3.3805 14.6935 6.7959 5.0254 14.3363 14.0737 5.9922 13.3016 5.7262 6.7009 10.9868 11.2850 3.1505 14.6539 5.2597 5.2666 11.6571 10.9950 3.9205 14.4173 7.9269 1.3576 14.9663 8.9021 4.3009 13.7951 6.6458 3.8508 13.8342 6.7857 2.3722 12.2977 14.1723 4.5542 10.2108 9.1065 5.0919 14.3926 6.6837 2.9798 13.4504 14.6432 3.3933 14.5247 5.2703 4.7242 14.6812 7.1332 2.4281 13.6621 11.1759 1.2961 14.7916 3.3511 4.7211 13.1316 12.3202 2.7645 12.6442 9.7006 4.3035 12.0646 8.5366 3.3711 13.8650 14.3728 2.0709 14.6495 10.3468 1.3973 13.7200 6.1859 3.5666 11.6970 12.4589 5.4046 9.9765 14.5793 5.4997 13.6766 11.6092 1.2661 12.5339 13.8661 1.9819 13.0669 13.6618 1.5713 13.1509 10.6773 1.8454 11.9158 10.0600 4.2619 11.7832 14.0295 2.9791 12.3588 13.9363 1.9265 13.8810 13.0095 3.8464 13.9460 13.4845 2.4560 11.7322 10.4843 2.5028 11.8251 12.6539 2.4197 12.4126 13.9247 2.6454 11.1870 11.0897 1.8709 11.7919 14.6370 2.7946 13.4985 11.5602 6.6422 14.2303 14.2022 3.6959 8.4400 6.9392 7.4717 13.7268 8.7317 5.7007 13.6481 13.8101 1.2768 11.2435 8.2251 4.0610 9.1016 11.0499 4.7490 11.3282 6.8930 4.3044 9.4067 5.1838 6.2061 11.9905 6.7141 3.6032 13.9313 11.9344 7.1449 9.1374 13.3756 3.4692 13.6353 10.4647 3.1019 10.0566 6.6477 5.5366 10.0161 14.1305 4.9332 10.5964 7.0039 5.0296 14.1121 10.7541 3.0401 10.1141 13.6250 2.6333 11.7910 12.3053 2.6297 14.1189 10.6632 6.3906 14.3349 10.6527 1.5166 9.1393 13.4243 3.7314 14.0286 11.0692 2.0685 12.5650 14.1100 1.7337 13.7257 11.4943 2.4158 13.2932 8.3384 5.1501 14.8250 9.5359 2.6131 13.3912 13.2983 6.9880 11.9649 13.6746 6.9781 13.7450 10.2697 2.9625 14.4069 9.6049 3.3630 9.5918 10.1393 8.0393 12.6723 13.8174 7.2155 14.4977 9.1914 3.0703 14.3947 9.5611 2.7252 14.5966 8.4722 2.7459 14.4320 9.3931 2.3959 14.6313 7.8039 1.9827 12.9755 6.8724 6.0208 14.2158 7.9821 3.4334 14.1385 7.8605 3.5014 14.2676 7.3584 3.3132 14.4041 6.8255 3.1057 13.9425 6.9382 2.8723 13.3688 6.8779 5.0424 14.5003 8.0422 2.8047 14.3073 6.5750 2.4749 13.2692 5.8754 5.1751 14.4233 8.3993 2.0944 13.7781 6.0127 3.9278 13.5166 6.0884 5.5787 14.0538 5.3067 5.2980 13.3762 5.7686 5.6065 13.7368 4.3341 5.3383 14.6470 3.1706 6.0880 11.6665 10.6611 8.1675 9.7575 13.7658 8.2071 14.0324 0.6900 6.8500 14.5455 8.7289 3.5523 14.6626 8.8235 3.1835 14.8048 14.5549 6.9499 14.7190 9.0157 2.7418 14.7749 9.1606 2.4873 14.3372 6.5635 5.5771 14.4812 8.5937 3.5135 14.8906 13.9288 6.2904 14.5873 8.6665 3.4376 14.1869 14.2732 6.0799 14.4354 8.0523 3.0488 14.7147 10.0576 3.6418 13.4643 7.0355 5.4963 14.4563 8.0389 3.5070 12.8127 6.0459 6.5588 13.5585 6.8127 5.6267 14.0090 7.5228 4.1358 14.3417 8.6492 2.4547 13.4770 7.5766 5.2150 11.8182 5.1260 7.1254 13.8253 8.0630 3.8474 13.9373 5.9639 6.2790 14.2198 6.6629 5.0412 13.8823 6.8811 5.2199 13.1460 5.8606 6.2078 13.8190 6.8663 5.0752 14.2216 6.9637 4.9500 14.0788 12.0755 6.8787 12.8429 12.9802 5.9057 14.5791 7.1278 4.2070 13.5220 7.6468 4.6447 13.8619 8.5233 2.6585 13.7165 6.1950 5.5124 13.8239 7.4884 3.7765 12.2216 6.0755 6.9575 13.3669 5.8331 5.9947 14.8976 13.4808 3.5457 9.6934 12.4035 8.2461 14.5646 13.4983 4.3394 13.6387 3.9510 6.8272 14.3782 2.6199 7.0632 14.5850 13.3968 6.3123 13.8669 12.7016 5.9418 12.4901 10.6922 7.6719 14.5104 3.7176 6.3209 13.9540 10.9522 7.1350 13.9828 11.8232 4.9851 11.0998 13.3966 7.7172 10.7384 12.8023 8.1193 14.7448 11.8710 5.4565 14.5629 12.6336 4.9958 12.1179 14.2187 7.1738 14.0020 13.3072 3.1280 13.5532 13.5131 4.1034 10.9582 14.3402 7.9771 13.2845 13.8377 3.6375 13.9954 11.8456 3.6673 12.8661 13.7068 5.4933 12.6675 13.5781 6.4478 13.5618 14.1495 4.1338 14.1073 11.1715 6.9362 13.3605 12.3118 6.0796 13.9030 13.0448 5.9423 14.2719 13.3132 6.1147 14.3837 11.1278 5.4744 14.5297 10.9212 6.4479 14.7562 13.2318 5.6387 14.5402 13.2630 5.5756 12.9764 11.1910 7.7726 14.0262 9.3523 6.4029 14.9196 7.5764 6.7029 13.6623 10.1074 5.4028 14.1332 12.9582 5.5204 12.3836 11.7046 6.0422 12.2917 13.2267 5.8164 13.8982 9.5232 6.0878 13.2969 12.5779 5.4687 13.6795 8.8718 6.5080 13.7715 10.4078 5.0954 12.9844 10.4890 7.9628 13.8905 13.0872 6.0068 14.4016 11.5480 5.6573 13.8470 9.2223 6.3327 13.9538 13.1760 5.3177 12.8256 9.4606 6.1711 14.7710 12.3845 5.1868 14.5315 13.1994 3.6890 14.0183 9.3208 6.3904 13.7331 10.1360 5.4920 14.1970 12.0446 4.7821 12.7824 9.4088 4.9804 12.9614 8.3666 6.8255 14.4877 9.6169 5.5507 10.6809 12.6988 5.7556 10.7230 6.7510 7.6972 14.0443 10.4120 5.6356 13.9165 10.7067 5.4800 12.8331 8.3252 5.7440 13.2575 12.8362 5.3968 10.9811 12.9047 5.3654 14.9639 10.5896 6.1205 14.0381 11.1369 6.2824 14.0142 13.1740 5.9919 14.5266 10.1705 5.7622 14.0208 10.8583 5.7301 13.5964 4.5663 7.4490 14.9549 5.3080 7.0493 14.7668 6.9946 5.9123 11.0973 6.0259 7.8152 14.9735 12.5718 5.3968 11.2557 6.2303 8.2245 10.9375 6.0447 7.6901 14.8531 12.7053 5.5027 14.9408 8.7339 6.0119 14.8910 12.8704 7.0269 14.2852 9.8343 5.9227 13.8943 8.6161 6.3880 14.9520 13.0934 5.7219 11.4345 3.7499 8.0030 13.8682 12.9414 3.5894 14.3271 13.2031 7.8860 12.9341 10.5280 5.0900 14.6752 13.4493 3.8604 14.8945 13.1804 5.6637 14.3558 9.6279 5.1024 12.1990 8.2901 6.2473 14.1193 9.5571 4.0000 10.6944 7.2032 8.0224 14.9943 13.3868 6.3996 12.9670 8.4050 5.9473 13.9686 9.7490 5.8183 14.8220 12.4420 4.5396 14.8204 7.1845 5.8018 12.3477 12.3905 7.1480 14.0664 12.1820 4.6064 13.9786 13.3498 5.6580 13.9030 7.6138 6.6718 14.0637 9.3218 5.9594 13.3536 12.6946 3.7514 14.8319 8.4609 4.5187 14.8261 8.9642 5.5488 14.6895 12.6836 6.2743 14.9771 10.3984 5.2871 14.6928 8.7663 3.5448 14.8007 6.6895 6.0056 14.6248 8.6488 5.7182 14.7222 13.4607 6.4011 13.3161 11.9122 5.1616 13.2707 12.3273 4.9559 14.8072 9.9392 4.5543 13.9015 13.1211 3.1987 14.2427 12.6698 5.7287 13.7650 1.9798 7.7255 13.7669 13.1425 7.7792 11.4558 5.6983 7.6731 14.4249 9.4973 5.5840 13.3048 2.9580 7.5548 11.4505 4.7050 8.0460 14.8081 8.5581 6.2187 14.7373 9.4352 5.3235 14.6681 12.2590 3.5195 13.7268 2.6291 7.5624 14.1296 8.9878 5.9873 13.4063 4.1501 7.7190 14.7960 11.8778 3.1385 14.1765 12.5958 3.3856 14.1156 13.0238 4.9117 12.5140 6.7509 8.0226 13.3135 8.2907 6.7207 14.8040 8.6278 5.2666 14.6254 13.1413 7.5090 13.5910 12.7512 3.0164 14.7836 8.4723 5.3247 14.6476 11.0787 4.1463 14.9875 11.5627 3.3319 14.7930 10.8254 3.3068 14.7621 7.4580 6.6545 13.9066 2.6572 7.8177 14.9940 11.1602 3.4499 11.2437 6.0726 8.1600 13.7735 12.5646 3.8792 14.6397 11.2242 4.4360 14.6477 10.8327 3.2765 14.9838 11.1940 3.4196 14.2172 13.2367 7.7196 14.1315 13.2350 5.1069 14.1152 7.3178 6.8244 14.5692 12.5347 5.2827 13.8046 12.6209 4.4788 14.6653 7.1730 6.8859 14.4779 9.3835 5.6485 12.6801 5.4208 8.1485 13.1498 5.2765 7.9254 14.1262 13.3163 5.2978 14.9837 11.1816 3.4127 14.9549 11.0901 3.5385 14.1811 7.3596 6.7858 14.9866 11.1783 3.4187 13.8680 13.0056 3.9791 14.9035 13.3931 6.6150 14.7649 12.3856 5.1722 14.3851 6.9356 6.7224 14.1391 6.6905 7.1176 14.2100 6.8762 6.9528 14.7002 8.3501 5.8161 14.3493 6.5276 6.8715 14.5127 13.3793 7.0490 14.8040 7.6580 5.9550 14.7427 7.9416 5.6846 14.2058 5.6254 7.1700 14.5290 5.1900 7.0256 13.7949 4.4955 7.4554 14.5374 6.9315 6.1478 14.4362 7.1758 5.7292 14.4721 6.6216 6.3884 14.8604 6.7125 5.9248 14.1581 4.9277 7.2304 14.7817 7.1932 5.5104 14.5848 5.1613 6.7375 14.8296 7.2765 5.2508 14.1321 4.8200 7.0103 14.2875 4.6075 7.1275 13.8578 3.9706 7.4707 14.0875 4.1917 7.3018 14.1945 4.2844 7.2654 14.5824 5.4099 6.5557 14.1014 5.3920 6.8840 14.8607 5.5156 6.5089 14.0165 4.3731 7.1692 13.9593 2.4660 7.5166 14.1291 2.5432 7.5379 13.5301 4.5876 7.2259 14.9531 5.2004 6.9406 14.9430 4.3919 7.8099 13.6684 3.4711 7.8717 14.4647 3.4965 7.5553 14.9854 4.7249 6.1409 14.9818 3.2584 6.9798 14.6549 3.2242 7.2650 14.2925 3.3106 7.5572 14.9802 8.2323 7.0135 14.0792 3.8080 7.5028 14.8702 9.2082 6.4645 14.3732 3.1842 7.4107 14.8196 2.3691 7.2509 14.8541 9.0992 6.4961 13.7313 7.8758 7.4520 14.5196 7.5535 7.4695 14.8104 8.0063 7.1731 14.7769 9.2593 6.4398 14.6642 8.9561 6.6765 13.8787 7.2341 7.5879 14.5592 9.0560 6.6907 14.7313 9.9198 5.9216 14.7334 8.9566 6.6402 14.1398 8.5730 7.0678 14.1996 8.5482 7.0610 14.8311 8.4734 6.8677 14.8410 8.6879 6.6952 14.9610 7.5494 7.3812 14.2512 8.3169 7.1201 14.9818 8.5998 6.7552 14.3842 7.8384 7.3673 14.6448 9.4600 6.5884 13.8224 8.2868 7.4387 14.1585 9.0865 6.9865 14.6040 8.9558 6.7186 14.8652 8.7712 6.8410 14.7163 9.0345 6.5434 14.8191 8.2502 7.1273 14.6232 8.6655 7.0005 14.5439 8.6116 7.0505 14.4301 9.0850 6.7868 14.3606 8.2097 7.3277 14.5814 8.1652 7.2887 14.3154 8.1765 7.3671 14.5600 8.3251 7.1684 14.4220 7.9916 7.6951 14.8391 8.8018 7.5442 14.7019 8.3590 7.4846 14.6914 8.3117 7.9059 14.7167 8.8496 7.8940 14.7711 9.5795 7.9331 14.9514 10.2380 7.4507 14.8195 9.6055 7.8567 14.9455 10.1045 7.7874 14.9302 10.2556 7.9347 14.9431 9.8766 7.9929 
        </DataArray>
    </Points>
    <PointData>
        <DataArray type="Float32" Name="tag" format="ascii">
            46683.0000 48003.0000 49507.0000 49523.0000 51175.0000 55027.0000 56423.0000 56907.0000 59915.0000 59987.0000 61951.0000 61975.0000 63551.0000 63575.0000 69235.0000 72499.0000 80931.0000 82883.0000 114435.0000 179767.0000 184727.0000 185055.0000 187103.0000 192495.0000 193271.0000 196503.0000 196971.0000 198419.0000 198951.0000 200507.0000 200803.0000 202959.0000 204659.0000 204775.0000 206227.0000 206511.0000 206559.0000 208307.0000 210891.0000 212571.0000 212671.0000 214387.0000 214739.0000 218191.0000 220267.0000 223827.0000 226143.0000 228943.0000 229215.0000 234331.0000 234403.0000 235743.0000 237455.0000 238907.0000 241883.0000 244015.0000 245087.0000 245319.0000 246695.0000 246979.0000 247139.0000 253695.0000 254011.0000 255079.0000 255311.0000 255415.0000 255483.0000 257063.0000 257247.0000 257387.0000 260659.0000 261759.0000 262351.0000 262383.0000 263459.0000 263739.0000 263923.0000 263963.0000 265411.0000 265523.0000 265807.0000 267207.0000 268871.0000 270859.0000 272975.0000 275903.0000 275915.0000 278779.0000 280663.0000 282147.0000 282463.0000 282491.0000 284103.0000 285263.0000 286863.0000 287779.0000 289227.0000 289271.0000 292683.0000 292779.0000 294047.0000 294087.0000 294359.0000 295659.0000 295775.0000 297371.0000 297495.0000 297535.0000 297647.0000 299251.0000 300403.0000 300679.0000 301079.0000 307467.0000 319751.0000 323867.0000 326631.0000 327099.0000 336183.0000 336523.0000 341139.0000 342563.0000 345971.0000 346099.0000 346139.0000 346235.0000 346259.0000 347747.0000 347835.0000 347987.0000 348447.0000 349799.0000 349971.0000 350111.0000 350295.0000 351419.0000 351915.0000 353303.0000 353743.0000 355055.0000 355795.0000 357035.0000 357455.0000 357643.0000 358691.0000 358707.0000 360551.0000 360751.0000 360907.0000 361127.0000 362751.0000 363019.0000 364407.0000 364671.0000 365843.0000 368123.0000 369435.0000 372555.0000 374255.0000 374351.0000 377223.0000 377503.0000 377639.0000 378847.0000 379335.0000 380551.0000 380575.0000 382531.0000 382823.0000 383827.0000 385535.0000 385743.0000 387571.0000 387603.0000 390503.0000 390619.0000 390943.0000 392167.0000 392179.0000 392551.0000 392635.0000 393775.0000 393803.0000 395767.0000 395835.0000 396835.0000 398519.0000 398923.0000 399059.0000 399075.0000 400291.0000 400399.0000 400531.0000 400707.0000 401107.0000 402303.0000 402707.0000 402735.0000 402755.0000 403823.0000 403947.0000 404223.0000 404287.0000 404295.0000 404687.0000 406215.0000 406259.0000 406375.0000 407843.0000 409595.0000 409619.0000 411159.0000 411371.0000 411375.0000 411395.0000 411523.0000 411531.0000 411819.0000 411847.0000 413239.0000 413363.0000 413487.0000 415191.0000 415267.0000 416115.0000 416495.0000 417419.0000 417455.0000 417643.0000 418723.0000 418775.0000 418803.0000 418991.0000 419019.0000 420011.0000 420583.0000 421303.0000 421307.0000 421351.0000 421431.0000 421475.0000 421679.0000 421787.0000 423067.0000 423967.0000 424115.0000 424131.0000 424359.0000 424471.0000 424507.0000 424663.0000 425687.0000 425747.0000 425879.0000 427223.0000 427251.0000 427415.0000 427603.0000 427683.0000 427875.0000 429067.0000 429123.0000 429135.0000 429319.0000 429435.0000 430595.0000 431807.0000 431919.0000 431951.0000 432247.0000 432391.0000 432491.0000 432551.0000 433347.0000 433395.0000 433771.0000 433779.0000 433875.0000 434003.0000 434063.0000 434915.0000 435255.0000 435331.0000 435351.0000 435419.0000 435431.0000 435627.0000 436671.0000 436779.0000 436935.0000 438151.0000 438319.0000 439479.0000 439507.0000 440043.0000 441211.0000 441659.0000 441739.0000 442815.0000 444695.0000 444779.0000 446039.0000 446119.0000 449731.0000 451067.0000 451415.0000 452643.0000 452963.0000 453023.0000 454767.0000 455611.0000 455903.0000 455963.0000 457323.0000 457443.0000 457751.0000 458851.0000 459007.0000 459071.0000 459247.0000 460183.0000 460783.0000 461703.0000 461847.0000 462207.0000 462223.0000 463407.0000 465015.0000 466571.0000 466803.0000 466851.0000 466855.0000 466959.0000 466987.0000 468159.0000 468683.0000 469727.0000 469991.0000 470135.0000 471555.0000 471587.0000 471927.0000 473023.0000 473167.0000 473483.0000 475211.0000 475299.0000 476591.0000 476739.0000 479951.0000 481467.0000 481523.0000 492607.0000 494679.0000 497415.0000 497915.0000 497995.0000 498663.0000 499167.0000 500255.0000 501527.0000 502915.0000 505587.0000 507611.0000 507991.0000 509535.0000 509679.0000 509891.0000 510999.0000 511007.0000 511547.0000 511663.0000 513007.0000 513035.0000 513119.0000 513155.0000 514655.0000 517199.0000 519255.0000 519303.0000 520719.0000 520827.0000 522635.0000 522803.0000 524547.0000 524583.0000 526471.0000 526687.0000 527963.0000 528327.0000 529671.0000 529755.0000 529823.0000 530347.0000 535023.0000 536739.0000 537043.0000 540743.0000 548575.0000 560407.0000 560735.0000 562103.0000 562967.0000 566023.0000 567687.0000 
         </DataArray>
    </PointData>
</Piece>
</PolyData>
</VTKFile>