<?xml version="1.0"?>
<VTKFile type="RectilinearGrid" version="1.0" byte_order="LittleEndian" header_type="UInt64">
<RectilinearGrid WholeExtent="0 25 0 25 0 15">
<Piece Extent="0 25 0 25 0 15">
<Coordinates>
<DataArray type="Float64" Name="Array X-Axis" format="ascii" RangeMin="0.0" RangeMax="15.0">
0.0 0.6 1.2 1.8 2.4 3.0 3.6 4.2 4.8 5.4 6.0 6.6 7.2 7.8 8.4 9.0 9.6 10.2 10.8 11.4 12.0 12.6 13.2 13.8 14.4 15.0 
</DataArray>
<DataArray type="Float64" Name="Array Y-Axis" format="ascii" RangeMin="0.0" RangeMax="15.0">
0.0 0.6 1.2 1.8 2.4 3.0 3.6 4.2 4.8 5.4 6.0 6.6 7.2 7.8 8.4 9.0 9.6 10.2 10.8 11.4 12.0 12.6 13.2 13.8 14.4 15.0 
</DataArray>
<DataArray type="Float64" Name="Array Z-Axis" format="ascii" RangeMin="0.0" RangeMax="9.0">
0.0 0.6 1.2 1.8 2.4 3.0 3.6 4.2 4.8 5.4 6.0 6.6 7.2 7.8 8.4 9.0 
</DataArray>
</Coordinates>
<PointData>
<DataArray Name="SOOT DENSITY" NumberOfComponents="1" type="UInt8" format="ascii">
0 0 0 0 0 0 0 0 0 0 0 0 0 0 0 0 0 0 0 0 0 0 0 0 0 0 0 0 0 0 0 0 0 0 0 0 0 0 0 0 0 0 0 0 0 0 0 0 0 0 0 0 0 0 0 0 0 0 0 0 0 0 0 0 0 0 0 0 0 0 0 0 0 0 0 0 0 0 0 0 0 0 0 0 0 0 0 0 0 0 0 0 0 0 0 0 0 0 0 0 0 0 0 0 0 0 0 0 0 0 0 0 0 0 0 0 0 0 0 0 0 0 0 0 0 0 0 0 0 0 0 0 0 0 0 0 0 0 0 0 0 0 0 0 0 0 0 0 0 0 0 0 0 0 0 0 0 0 0 0 0 0 0 0 0 0 0 0 0 0 0 0 0 0 0 0 0 0 0 0 0 0 0 0 0 0 0 0 0 0 0 0 0 0 0 0 0 0 0 0 0 0 0 0 0 0 0 0 0 0 0 0 0 0 0 0 0 0 0 0 0 0 0 0 0 0 0 0 0 0 0 0 0 0 0 0 0 0 0 0 0 0 0 0 0 0 0 0 0 0 0 0 0 0 0 0 0 0 0 0 0 0 0 0 0 0 0 0 0 0 0 0 0 0 0 0 0 0 0 0 0 0 0 0 0 0 0 0 0 0 0 0 0 0 0 0 0 0 0 0 0 0 0 0 0 0 0 0 0 0 0 0 0 0 0 0 0 0 0 0 0 0 0 0 0 0 0 0 0 0 0 0 0 0 0 0 0 0 0 0 0 0 0 0 0 0 0 0 0 0 0 0 0 0 0 0 0 0 0 0 0 0 0 0 0 0 0 0 0 0 0 0 0 0 0 0 0 0 0 0 0 0 0 0 0 0 0 0 0 0 0 0 0 0 0 0 0 0 0 0 0 0 0 0 0 0 0 0 0 0 0 0 0 0 0 0 0 0 0 0 0 0 0 0 0 0 0 0 0 0 0 0 0 0 0 0 0 0 0 0 0 0 0 0 0 0 0 0 0 0 0 0 0 0 0 0 0 0 0 0 0 0 0 0 0 0 0 0 0 0 0 0 0 0 0 0 0 0 0 0 0 0 0 0 0 0 0 0 0 0 0 0 0 0 0 0 0 0 0 0 0 0 0 0 0 0 0 0 0 0 0 0 0 0 0 0 0 0 0 0 0 0 0 0 0 0 0 0 0 0 0 0 0 0 0 0 0 0 0 0 0 0 0 0 0 0 0 0 0 0 0 0 0 0 0 0 0 0 0 0 0 0 0 0 0 0 0 0 0 0 0 0 0 0 0 0 0 0 0 0 0 0 0 0 0 0 0 0 0 0 0 0 0 0 0 0 0 0 0 0 0 0 0 0 0 0 0 0 0 0 0 0 0 0 0 0 0 0 0 0 0 0 0 0 0 0 0 0 0 0 0 0 0 0 0 0 0 0 0 0 0 0 0 0 0 0 0 0 0 0 0 0 0 0 0 0 0 0 0 0 0 0 0 0 0 0 0 0 0 0 0 0 0 0 0 0 0 0 0 0 0 0 0 0 0 0 0 0 0 0 0 0 0 0 0 0 0 0 0 0 0 0 0 0 0 0 0 0 0 0 0 0 0 0 0 0 0 0 0 0 0 0 0 0 0 0 0 0 0 0 0 0 0 0 0 0 0 0 0 0 0 0 0 0 0 0 0 0 0 0 0 0 0 0 0 0 0 0 0 0 0 0 0 0 0 0 0 0 0 0 0 0 0 0 0 0 0 0 0 0 0 0 0 0 0 0 0 0 0 0 0 0 0 0 0 0 0 0 0 0 0 0 0 0 0 0 0 0 0 0 0 0 0 0 0 0 0 0 0 0 0 0 0 0 0 0 0 0 0 0 0 0 0 0 0 0 0 0 0 0 0 0 0 0 0 0 0 0 0 0 0 0 0 0 0 0 0 0 0 0 0 0 0 0 0 0 0 0 0 0 0 0 0 0 0 0 0 0 0 0 0 0 0 0 0 0 0 0 0 0 0 0 0 0 0 0 0 0 0 0 0 0 0 0 0 0 0 0 0 0 0 0 0 0 0 0 0 0 0 0 0 0 0 0 0 0 0 0 0 0 0 0 0 0 0 0 0 0 0 0 0 0 0 0 0 0 0 0 0 0 0 0 0 0 0 0 0 0 0 0 0 0 0 0 0 0 0 0 0 0 0 0 0 0 0 0 0 0 0 0 0 0 0 0 0 0 0 0 0 0 0 0 0 0 0 0 0 0 0 0 0 0 0 0 0 0 0 0 0 0 0 0 0 0 0 0 0 0 0 0 0 0 0 0 0 0 0 0 0 0 0 0 0 0 0 0 0 0 0 0 0 0 0 0 0 0 0 0 0 0 0 0 0 0 0 0 0 0 0 0 0 0 0 0 0 0 0 0 0 0 0 0 0 0 0 0 0 0 0 0 0 0 0 0 0 0 0 0 0 0 0 0 0 0 0 0 0 0 0 0 0 0 0 0 0 0 0 0 0 0 0 0 0 0 0 0 0 0 0 0 0 0 0 0 0 0 0 0 0 0 0 0 0 0 0 0 0 0 0 0 0 0 0 0 0 0 0 0 0 0 0 0 0 0 0 0 0 0 0 0 0 0 0 0 0 0 0 0 0 0 0 0 0 0 0 0 0 0 0 0 0 0 0 0 0 0 0 0 0 0 0 0 0 0 0 0 0 0 0 0 0 0 0 0 0 0 0 0 0 0 0 0 0 0 0 0 0 0 0 0 0 0 0 0 0 0 0 0 0 0 0 0 0 0 0 0 0 0 0 0 0 0 0 0 0 0 0 0 0 0 0 0 0 0 0 0 0 0 0 0 0 0 0 0 0 0 0 0 0 0 0 0 0 0 0 0 0 0 0 0 0 0 0 0 0 0 0 0 0 0 0 0 0 0 0 0 0 0 0 0 0 0 0 0 0 0 0 0 0 0 0 0 0 0 0 0 0 0 0 0 0 0 0 0 0 0 0 0 0 0 0 0 0 0 0 0 0 0 0 0 0 0 0 0 0 0 0 0 0 0 0 0 0 0 0 0 0 0 0 0 0 0 0 0 0 0 0 0 0 0 0 0 0 0 0 0 0 0 0 0 0 0 0 0 0 0 0 0 0 0 0 0 0 0 0 0 0 0 0 0 0 0 0 0 0 0 0 0 0 0 0 0 0 0 0 0 0 0 0 0 0 0 0 0 0 0 0 0 0 0 0 0 0 0 0 0 0 0 0 0 0 0 0 0 0 0 0 0 0 0 0 0 0 0 0 0 0 0 0 0 0 0 0 0 0 0 0 0 0 0 0 0 0 0 0 0 0 0 0 0 0 0 0 0 0 0 0 0 0 0 0 0 0 0 0 0 0 0 0 0 0 0 0 0 0 0 0 0 0 0 0 0 0 0 0 0 0 0 0 0 0 0 0 0 0 0 0 0 0 0 0 0 0 0 0 0 0 0 0 0 0 0 0 0 0 0 0 0 0 0 0 0 0 0 0 0 0 0 0 0 0 0 0 0 0 0 0 0 0 0 0 0 0 0 0 0 0 0 0 0 0 0 0 0 0 0 0 0 0 0 0 0 0 0 0 0 0 0 0 0 0 0 0 0 0 0 0 0 0 0 0 0 0 0 0 0 0 0 0 0 0 0 0 0 0 0 0 0 0 0 0 0 0 0 0 0 0 0 0 0 0 0 0 0 0 0 0 0 0 0 0 0 0 0 0 0 0 0 0 0 0 0 0 0 0 0 0 0 0 0 0 0 0 0 0 0 0 0 0 0 0 0 0 0 0 0 0 0 0 0 0 0 0 0 0 0 0 0 0 0 0 0 0 0 0 0 0 0 0 0 0 0 0 0 0 0 0 0 0 0 0 0 0 0 0 0 0 0 0 0 0 0 0 0 0 0 0 0 0 0 0 0 0 0 0 0 0 0 0 0 0 0 0 0 0 0 0 0 0 0 0 0 0 0 0 0 0 0 0 0 0 0 0 0 0 0 0 0 0 0 0 0 0 0 0 0 0 0 0 0 0 0 0 0 0 0 0 0 0 0 0 0 0 0 0 0 0 0 0 0 0 0 0 0 0 0 0 0 0 0 0 0 0 0 0 0 0 0 0 0 0 0 0 0 0 0 0 0 0 0 0 0 0 0 0 0 0 0 0 0 0 0 0 0 0 0 0 0 0 0 0 0 0 0 0 0 0 0 0 0 0 0 0 0 0 0 0 0 0 0 0 0 0 0 0 0 0 0 0 0 0 0 0 0 0 0 0 1 0 0 0 0 0 0 0 0 0 0 0 0 0 0 0 0 0 0 0 0 0 0 0 0 0 2 0 0 0 0 0 0 0 0 0 0 0 0 0 0 0 0 0 0 0 0 0 0 0 0 0 2 0 0 0 0 0 0 0 0 0 0 0 0 0 0 0 0 0 0 0 0 0 0 0 0 0 1 0 0 0 0 0 0 0 0 0 0 0 0 0 0 0 0 0 0 0 0 0 0 0 0 0 0 0 0 0 0 0 0 0 0 0 0 0 0 0 0 0 0 0 0 0 0 0 0 0 0 0 0 0 0 0 0 0 0 0 0 0 0 0 0 0 0 0 0 0 0 0 0 0 0 0 0 0 0 0 0 0 0 0 0 0 0 0 0 0 0 0 0 0 0 0 0 0 0 0 0 0 0 0 0 0 0 0 0 0 0 0 0 0 0 0 0 0 0 0 0 0 0 0 0 0 0 0 0 0 0 0 0 0 0 0 0 0 0 0 0 0 0 0 0 0 0 0 0 0 0 0 0 0 0 0 0 0 0 0 0 0 0 0 0 0 0 0 0 0 0 0 0 0 0 0 0 0 0 0 0 0 0 0 0 0 0 0 0 0 0 0 0 0 0 0 0 0 0 0 0 0 0 0 0 0 0 0 0 0 0 0 0 0 0 0 0 0 0 0 0 0 0 0 0 0 0 0 0 0 0 0 0 0 0 0 0 0 0 0 0 0 0 0 0 0 0 0 0 0 0 0 0 0 0 0 0 0 0 0 0 0 0 0 0 0 0 0 0 0 0 0 0 0 0 0 0 0 0 0 0 0 0 0 0 0 0 0 0 0 0 0 0 0 0 0 0 0 0 0 0 0 0 0 0 0 0 0 0 0 0 0 0 0 0 0 0 0 0 0 0 0 0 0 0 0 0 0 0 0 0 0 0 0 0 0 0 0 0 0 0 0 0 0 0 0 0 0 0 0 0 0 0 0 0 0 0 0 0 0 0 0 0 0 0 0 0 0 0 0 0 0 0 0 0 0 0 0 0 0 0 0 0 0 0 0 0 0 0 0 0 0 0 0 0 0 0 0 0 0 0 0 0 0 0 0 0 0 0 0 0 0 0 0 0 0 0 0 0 0 0 0 0 0 0 0 0 0 0 0 0 0 0 0 0 0 0 0 0 0 0 0 0 0 0 0 0 0 0 0 0 0 0 0 0 0 0 0 0 0 0 0 0 0 0 0 0 0 0 0 0 0 0 0 0 0 0 0 0 0 0 0 0 0 0 0 0 0 0 0 0 0 0 0 0 0 0 0 0 0 0 0 0 0 0 0 0 0 0 0 0 0 0 0 0 0 0 0 0 0 0 0 0 0 0 0 0 0 0 0 0 0 0 0 0 0 0 0 0 0 0 0 0 0 0 0 2 0 0 0 0 0 0 0 0 0 0 0 0 0 0 0 0 0 0 0 0 0 0 0 0 0 14 0 0 0 0 0 0 0 0 0 0 0 0 0 0 0 0 0 0 0 0 0 0 0 0 3 32 0 0 0 0 0 0 0 0 0 0 0 0 0 0 0 0 0 0 0 0 0 0 0 0 6 37 0 0 0 0 0 0 0 0 0 0 0 0 0 0 0 0 0 0 0 0 0 0 0 0 5 28 0 0 0 0 0 0 0 0 0 0 0 0 0 0 0 0 0 0 0 0 0 0 0 0 2 11 0 0 0 0 0 0 0 0 0 0 0 0 0 0 0 0 0 0 0 0 0 0 0 0 0 1 0 0 0 0 0 0 0 0 0 0 0 0 0 0 0 0 0 0 0 0 0 0 0 0 0 0 0 0 0 0 0 0 0 0 0 0 0 0 0 0 0 0 0 0 0 0 0 0 0 0 0 0 0 0 0 0 0 0 0 0 0 0 0 0 0 0 0 0 0 0 0 0 0 0 0 0 0 0 0 0 0 0 0 0 0 0 0 0 0 0 0 0 0 0 0 0 0 0 0 0 0 0 0 0 0 0 0 0 0 0 0 0 0 0 0 0 0 0 0 0 0 0 0 0 0 0 0 0 0 0 0 0 0 0 0 0 0 0 0 0 0 0 0 0 0 0 0 0 0 0 0 0 0 0 0 0 0 0 0 0 0 0 0 0 0 0 0 0 0 0 0 0 0 0 0 0 0 0 0 0 0 0 0 0 0 0 0 0 0 0 0 0 0 0 0 0 0 0 0 0 0 0 0 0 0 0 0 0 0 0 0 0 0 0 0 0 0 0 0 0 0 0 0 0 0 0 0 0 0 0 0 0 0 0 0 0 0 0 0 0 0 0 0 0 0 0 0 0 0 0 0 0 0 0 0 0 0 0 0 0 0 0 0 0 0 0 0 0 0 0 0 0 0 0 0 0 0 0 0 0 0 0 0 0 0 0 0 0 0 0 0 0 0 0 0 0 0 0 0 0 0 0 0 0 0 0 0 0 0 0 0 0 0 0 0 0 0 0 0 0 0 0 0 0 0 0 0 0 0 0 0 0 0 0 0 0 0 0 0 0 0 0 0 0 0 0 0 0 0 0 0 0 0 0 0 0 0 0 0 0 0 0 0 0 0 0 0 0 0 0 0 0 0 0 0 0 0 0 0 0 0 0 0 0 0 0 0 0 0 0 0 0 0 0 0 0 0 0 0 0 0 0 0 0 0 0 0 0 0 0 0 0 0 0 0 0 0 0 0 0 0 0 0 0 0 0 0 0 0 0 0 0 0 0 0 0 0 0 0 0 0 0 0 0 0 0 0 0 0 0 0 0 0 0 0 0 0 0 0 0 0 0 0 0 0 0 0 0 0 0 0 0 0 0 0 0 0 0 0 0 0 0 0 0 0 0 0 0 0 0 0 0 0 4 0 0 0 0 0 0 0 0 0 0 0 0 0 0 0 0 0 0 0 0 0 0 0 0 3 37 0 0 0 0 0 0 0 0 0 0 0 0 0 0 0 0 0 0 0 0 0 0 0 0 5 75 0 0 0 0 0 0 0 0 0 0 0 0 0 0 0 0 0 0 0 0 0 0 0 0 8 86 0 0 0 0 0 0 0 0 0 0 0 0 0 0 0 0 0 0 0 0 0 0 0 0 11 74 0 0 0 0 0 0 0 0 0 0 0 0 0 0 0 0 0 0 0 0 0 0 0 0 10 47 0 0 0 0 0 0 0 0 0 0 0 0 0 0 0 0 0 0 0 0 0 0 0 0 5 19 0 0 0 0 0 0 0 0 0 0 0 0 0 0 0 0 0 0 0 0 0 0 0 0 1 4 0 0 0 0 0 0 0 0 0 0 0 0 0 0 0 0 0 0 0 0 0 0 0 0 0 1 0 0 0 0 0 0 0 0 0 0 0 0 0 0 0 0 0 0 0 0 0 0 0 0 0 0 0 0 0 0 0 0 0 0 0 0 0 0 0 0 0 0 0 0 0 0 0 0 0 0 0 0 0 0 0 0 0 0 0 0 0 0 0 0 0 0 0 0 0 0 0 0 0 0 0 0 0 0 0 0 0 0 0 0 0 0 0 0 0 0 0 0 0 0 0 0 0 0 0 0 0 0 0 0 0 0 0 0 0 0 0 0 0 0 0 0 0 0 0 0 0 0 0 0 0 0 0 0 0 0 0 0 0 0 0 0 0 0 0 0 0 0 0 0 0 0 0 0 0 0 0 0 0 0 0 0 0 0 0 0 0 0 0 0 0 0 0 0 0 0 0 0 0 0 0 0 0 0 0 0 0 0 0 0 0 0 0 0 0 0 0 0 0 0 0 0 0 0 0 0 0 0 0 0 0 0 0 0 0 0 0 0 0 0 0 0 0 0 0 0 0 0 0 0 0 0 0 0 0 0 0 0 0 0 0 0 0 0 0 0 0 0 0 0 0 0 0 0 0 0 0 0 0 0 0 0 0 0 0 0 0 0 0 0 0 0 0 0 0 0 0 0 0 0 0 0 0 0 0 0 0 0 0 0 0 0 0 0 0 0 0 0 0 0 0 0 0 0 0 0 0 0 0 0 0 0 0 0 0 0 0 0 0 0 0 0 0 0 0 0 0 0 0 0 0 0 0 0 0 0 0 0 0 0 0 0 0 0 0 0 0 0 0 0 0 0 0 0 0 0 0 0 0 0 0 0 0 0 0 0 0 0 0 0 0 0 0 0 0 0 0 0 0 0 0 0 0 0 0 0 0 0 0 0 0 0 0 0 0 0 0 0 0 0 0 0 0 0 0 0 0 0 0 0 0 0 0 0 0 0 0 0 0 0 0 0 0 0 0 0 0 0 0 0 0 0 0 0 0 0 0 0 0 0 0 0 0 0 0 0 1 3 0 0 0 0 0 0 0 0 0 0 0 0 0 0 0 0 0 0 0 0 0 0 0 0 2 22 0 0 0 0 0 0 0 0 0 0 0 0 0 0 0 0 0 0 0 0 0 0 0 0 11 100 0 0 0 0 0 0 0 0 0 0 0 0 0 0 0 0 0 0 0 0 0 0 1 2 39 163 0 0 0 0 0 0 0 0 0 0 0 0 0 0 0 0 0 0 0 0 0 0 1 3 48 172 0 0 0 0 0 0 0 0 0 0 0 0 0 0 0 0 0 0 0 0 0 0 0 4 42 150 0 0 0 0 0 0 0 0 0 0 0 0 0 0 0 0 0 0 0 0 0 0 0 4 37 100 0 0 0 0 0 0 0 0 0 0 0 0 0 0 0 0 0 0 0 0 0 0 1 3 23 47 0 0 0 0 0 0 0 0 0 0 0 0 0 0 0 0 0 0 0 0 0 0 0 3 14 25 0 0 0 0 0 0 0 0 0 0 0 0 0 0 0 0 0 0 0 0 0 0 0 1 6 8 0 0 0 0 0 0 0 0 0 0 0 0 0 0 0 0 0 0 0 0 0 0 0 0 0 0 0 0 0 0 0 0 0 0 0 0 0 0 0 0 0 0 0 0 0 0 0 0 0 0 0 0 0 0 0 0 0 0 0 0 0 0 0 0 0 0 0 0 0 0 0 0 0 0 0 0 0 0 0 0 0 0 0 0 0 0 0 0 0 0 0 0 0 0 0 0 0 0 0 0 0 0 0 0 0 0 0 0 0 0 0 0 0 0 0 0 0 0 0 0 0 0 0 0 0 0 0 0 0 0 0 0 0 0 0 0 0 0 0 0 0 0 0 0 0 0 0 0 0 0 0 0 0 0 0 0 0 0 0 0 0 0 0 0 0 0 0 0 0 0 0 0 0 0 0 0 0 0 0 0 0 0 0 0 0 0 0 0 0 0 0 0 0 0 0 0 0 0 0 0 0 0 0 0 0 0 0 0 0 0 0 0 0 0 0 0 0 0 0 0 0 0 0 0 0 0 0 0 0 0 0 0 0 0 0 0 0 0 0 0 0 0 0 0 0 0 0 0 0 0 0 0 0 0 0 0 0 0 0 0 0 0 0 0 0 0 0 0 0 0 0 0 0 0 0 0 0 0 0 0 0 0 0 0 0 0 0 0 0 0 0 0 0 0 0 0 0 0 0 0 0 0 0 0 0 0 0 0 0 0 0 0 0 0 0 0 0 0 0 0 0 0 0 0 0 0 0 0 0 0 0 0 0 0 0 0 0 0 0 0 0 0 0 0 0 0 0 0 0 0 0 0 0 0 0 0 0 0 0 0 0 0 0 0 0 0 0 0 0 0 0 0 0 0 0 0 0 0 0 0 0 0 0 0 0 0 0 0 0 0 0 0 0 0 0 0 0 0 0 0 0 0 0 0 0 0 0 0 0 0 0 0 0 0 0 0 0 0 0 0 0 0 0 0 0 0 0 0 0 0 0 0 0 0 0 0 0 0 0 0 2 5 0 0 0 0 0 0 0 0 0 0 0 0 0 0 0 0 0 0 0 0 0 0 0 0 5 36 0 0 0 0 0 0 0 0 0 0 0 0 0 0 0 0 0 0 0 0 0 0 0 2 18 124 0 0 0 0 0 0 0 0 0 0 0 0 0 0 0 0 0 0 0 0 0 0 1 22 97 204 0 0 0 0 0 0 0 0 0 0 0 0 0 0 0 0 0 0 0 0 0 0 4 31 130 222 0 0 0 0 0 0 0 0 0 0 0 0 0 0 0 0 0 0 0 0 0 0 4 19 105 211 0 0 0 0 0 0 0 0 0 0 0 0 0 0 0 0 0 0 0 0 0 0 6 21 91 170 0 0 0 0 0 0 0 0 0 0 0 0 0 0 0 0 0 0 0 0 0 0 9 32 82 117 0 0 0 0 0 0 0 0 0 0 0 0 0 0 0 0 0 0 0 0 0 0 6 35 70 82 0 0 0 0 0 0 0 0 0 0 0 0 0 0 0 0 0 0 0 0 0 0 1 18 42 39 0 0 0 0 0 0 0 0 0 0 0 0 0 0 0 0 0 0 0 0 0 0 0 0 0 0 0 0 0 0 0 0 0 0 0 0 0 0 0 0 0 0 0 0 0 0 0 0 0 0 0 0 0 0 0 0 0 0 0 0 0 0 0 0 0 0 0 0 0 0 0 0 0 0 0 0 0 0 0 0 0 0 0 0 0 0 0 0 0 0 0 0 0 0 0 0 0 0 0 0 0 0 0 0 0 0 0 0 0 0 0 0 0 0 0 0 0 0 0 0 0 0 0 0 0 0 0 0 0 0 0 0 0 0 0 0 0 0 0 0 0 0 0 0 0 0 0 0 0 0 0 0 0 0 0 0 0 0 0 0 0 0 0 0 0 0 0 0 0 0 0 0 0 0 0 0 0 0 0 0 0 0 0 0 0 0 0 0 0 0 0 0 0 0 0 0 0 0 0 0 0 0 0 0 0 0 0 0 0 0 0 0 0 0 0 0 0 0 0 0 0 0 0 0 0 0 0 0 0 0 0 0 0 0 0 0 0 0 0 0 0 0 0 0 0 0 0 0 0 0 0 0 0 0 0 0 0 0 0 0 0 0 0 0 0 0 0 0 0 0 0 0 0 0 0 0 0 0 0 0 0 0 0 0 0 0 0 0 0 0 0 0 0 0 0 0 0 0 0 0 0 0 0 0 0 0 0 0 0 0 0 0 0 0 0 0 0 0 0 0 0 0 0 0 0 0 0 0 0 0 0 0 0 0 0 0 0 0 0 0 0 0 0 0 0 0 0 0 0 0 0 0 0 0 0 0 0 0 0 0 0 0 0 0 0 0 0 0 0 0 0 0 0 0 0 0 0 0 0 0 0 0 0 0 0 0 0 0 0 0 0 0 0 0 0 0 0 0 0 0 0 0 0 0 0 0 0 0 0 0 0 0 0 0 0 0 0 0 0 0 0 0 0 0 0 0 0 0 0 0 0 0 0 0 0 0 0 0 0 0 1 6 0 0 0 0 0 0 0 0 0 0 0 0 0 0 0 0 0 0 0 0 0 0 0 0 5 31 0 0 0 0 0 0 0 0 0 0 0 0 0 0 0 0 0 0 0 0 0 0 0 3 25 112 0 0 0 0 0 0 0 0 0 0 0 0 0 0 0 0 0 0 0 0 0 0 2 43 140 213 0 0 0 0 0 0 0 0 0 0 0 0 0 0 0 0 0 0 0 0 1 4 16 79 191 238 0 0 0 0 0 0 0 0 0 0 0 0 0 0 0 0 0 0 0 0 1 5 24 72 174 233 0 0 0 0 0 0 0 0 0 0 0 0 0 0 0 0 0 0 0 0 0 3 28 79 160 215 0 0 0 0 0 0 0 0 0 0 0 0 0 0 0 0 0 0 0 0 0 2 32 98 156 183 0 0 0 0 0 0 0 0 0 0 0 0 0 0 0 0 0 0 0 0 0 1 17 84 139 143 0 0 0 0 0 0 0 0 0 0 0 0 0 0 0 0 0 0 0 0 0 0 2 38 100 94 0 0 0 0 0 0 0 0 0 0 0 0 0 0 0 0 0 0 0 0 0 0 0 0 0 0 0 0 0 0 0 0 0 0 0 0 0 0 0 0 0 0 0 0 0 0 0 0 0 0 0 0 0 0 0 0 0 0 0 0 0 0 0 0 0 0 0 0 0 0 0 0 0 0 0 0 0 0 0 0 0 0 0 0 0 0 0 0 0 0 0 0 0 0 0 0 0 0 0 0 0 0 0 0 0 0 0 0 0 0 0 0 0 0 0 0 0 0 0 0 0 0 0 0 0 0 0 0 0 0 0 0 0 0 0 0 0 0 0 0 0 0 0 0 0 0 0 0 0 0 0 0 0 0 0 0 0 0 0 0 0 0 0 0 0 0 0 0 0 0 0 0 0 0 0 0 0 0 0 0 0 0 0 0 0 0 0 0 0 0 0 0 0 0 0 0 0 0 0 0 0 0 0 0 0 0 0 0 0 0 0 0 0 0 0 0 0 0 0 0 0 0 0 0 0 0 0 0 0 0 0 0 0 0 0 0 0 0 0 0 0 0 0 0 0 0 0 0 0 0 0 0 0 0 0 0 0 0 0 0 0 0 0 0 0 0 0 0 0 0 0 0 0 0 0 0 0 0 0 0 0 0 0 0 0 0 0 0 0 0 0 0 0 0 0 0 0 0 0 0 0 0 0 0 0 0 0 0 0 0 0 0 0 0 0 0 0 0 0 0 0 0 0 0 0 0 0 0 0 0 0 0 0 0 0 0 0 0 0 0 0 0 0 0 0 0 0 0 0 0 0 0 0 0 0 0 0 0 0 0 0 0 0 0 0 0 0 0 0 0 0 0 0 0 0 0 0 0 0 0 0 0 0 0 0 0 0 0 0 0 0 0 0 0 0 0 0 0 0 0 0 0 0 0 0 0 0 0 0 0 0 0 0 0 0 0 0 0 0 0 0 0 0 0 0 0 0 0 0 0 0 0 0 0 0 0 0 0 0 0 1 4 0 0 0 0 0 0 0 0 0 0 0 0 0 0 0 0 0 0 0 0 0 0 0 1 6 21 0 0 0 0 0 0 0 0 0 0 0 0 0 0 0 0 0 0 0 0 0 0 1 3 24 81 0 0 0 0 0 0 0 0 0 0 0 0 0 0 0 0 0 0 0 0 0 1 5 36 124 194 0 0 0 0 0 0 0 0 0 0 0 0 0 0 0 0 0 0 0 0 1 6 31 100 196 235 0 0 0 0 0 0 0 0 0 0 0 0 0 0 0 0 0 0 0 0 2 9 53 136 211 239 0 0 0 0 0 0 0 0 0 0 0 0 0 0 0 0 0 0 0 0 1 15 73 156 210 233 0 0 0 0 0 0 0 0 0 0 0 0 0 0 0 0 0 0 0 0 0 14 68 156 198 210 0 0 0 0 0 0 0 0 0 0 0 0 0 0 0 0 0 0 0 0 0 3 25 116 183 185 0 0 0 0 0 0 0 0 0 0 0 0 0 0 0 0 0 0 0 0 0 0 3 50 148 151 0 0 0 0 0 0 0 0 0 0 0 0 0 0 0 0 0 0 0 0 0 0 0 0 0 0 0 0 0 0 0 0 0 0 0 0 0 0 0 0 0 0 0 0 0 0 0 0 0 0 0 0 0 0 0 0 0 0 0 0 0 0 0 0 0 0 0 0 0 0 0 0 0 0 0 0 0 0 0 0 0 0 0 0 0 0 0 0 0 0 0 0 0 0 0 0 0 0 0 0 0 0 0 0 0 0 0 0 0 0 0 0 0 0 0 0 0 0 0 0 0 0 0 0 0 0 0 0 0 0 0 0 0 0 0 0 0 0 0 0 0 0 0 0 0 0 0 0 0 0 0 1 1 1 1 1 0 0 0 0 0 0 0 0 0 0 0 0 0 0 0 0 0 0 0 0 0 1 1 1 1 2 0 0 0 0 0 0 0 0 0 0 0 0 0 0 0 0 0 0 0 0 0 1 1 1 2 2 0 0 0 0 0 0 0 0 0 0 0 0 0 0 0 0 0 0 0 0 0 1 1 1 1 1 0 0 0 0 0 0 0 0 0 0 0 0 0 0 0 0 0 0 0 0 0 1 1 1 1 1 0 0 0 0 0 0 0 0 0 0 0 0 0 0 0 0 0 0 0 0 0 1 1 1 1 1 0 0 0 0 0 0 0 0 0 0 0 0 0 0 0 0 0 0 0 0 0 0 1 1 2 2 0 0 0 0 0 0 0 0 0 0 0 0 0 0 0 0 0 0 0 0 0 0 0 1 2 2 0 0 0 0 0 0 0 0 0 0 0 0 0 0 0 0 0 0 0 0 0 0 0 1 1 2 0 0 0 0 0 0 0 0 0 0 0 0 0 0 0 0 0 0 0 0 0 0 0 1 1 1 0 0 0 0 0 0 0 0 0 0 0 0 0 0 0 0 0 0 0 0 1 1 1 1 1 1 0 0 0 0 0 0 0 0 0 0 0 0 0 0 0 0 0 0 0 1 1 1 1 1 1 4 0 0 0 0 0 0 0 0 0 0 0 0 0 0 0 0 0 0 0 1 1 1 2 5 9 16 0 0 0 0 0 0 0 0 0 0 0 0 0 0 0 0 0 0 0 1 1 1 5 11 22 50 0 0 0 0 0 0 0 0 0 0 0 0 0 0 0 0 0 0 0 1 1 3 13 33 72 132 0 0 0 0 0 0 0 0 0 0 0 0 0 0 0 0 0 0 0 1 2 8 47 111 166 202 0 0 0 0 0 0 0 0 0 0 0 0 0 0 0 0 0 0 0 1 2 15 88 179 220 230 0 0 0 0 0 0 0 0 0 0 0 0 0 0 0 0 0 0 0 0 4 43 130 204 230 234 0 0 0 0 0 0 0 0 0 0 0 0 0 0 0 0 0 0 0 1 4 43 118 195 220 221 0 0 0 0 0 0 0 0 0 0 0 0 0 0 0 0 0 0 0 1 3 12 43 139 205 215 0 0 0 0 0 0 0 0 0 0 0 0 0 0 0 0 0 0 0 1 4 7 8 53 162 183 0 0 0 0 0 0 0 0 0 0 0 0 0 0 0 0 0 0 0 0 0 0 1 1 1 0 0 0 0 1 1 1 0 1 1 1 1 1 1 1 1 1 1 1 1 1 1 1 1 2 2 2 0 0 1 1 1 1 1 1 1 2 2 2 1 1 1 1 1 1 1 1 1 2 2 2 2 3 0 0 1 1 1 1 1 1 1 2 2 2 2 1 1 1 1 2 2 2 3 4 4 4 4 4 0 0 1 1 1 1 1 1 1 1 2 2 2 2 2 2 2 2 3 3 4 5 5 7 7 6 0 0 1 1 1 1 1 1 1 1 1 1 2 2 2 3 3 3 4 4 5 5 5 8 10 8 0 0 0 1 1 1 1 1 1 1 1 1 1 2 2 3 3 4 4 4 5 5 7 10 12 10 0 0 0 1 1 1 1 1 1 1 1 1 1 1 2 3 3 4 4 4 4 8 15 19 15 11 0 0 0 1 1 1 1 1 1 1 1 1 1 1 2 2 4 4 4 3 5 14 26 29 21 13 0 0 0 1 1 1 1 1 1 1 1 1 1 1 1 2 4 5 4 3 7 18 29 30 23 16 0 0 0 1 1 1 1 1 1 1 1 1 1 1 1 2 4 4 4 3 6 14 22 24 21 20 0 0 1 1 1 1 1 1 1 2 2 1 1 1 1 2 4 4 4 3 4 8 13 17 19 23 0 0 1 1 1 1 1 1 2 2 2 1 1 1 2 3 4 4 4 3 3 5 8 15 19 22 0 0 1 1 1 1 1 1 1 2 2 1 2 2 3 4 4 4 3 3 4 6 8 13 16 19 0 0 1 1 1 1 1 1 1 2 2 1 2 3 4 4 4 4 3 5 11 16 13 12 11 14 0 0 1 1 1 1 1 1 1 1 1 2 2 2 3 4 4 4 4 9 24 29 18 11 8 9 0 1 1 1 1 1 1 1 1 1 1 2 2 2 3 3 4 4 5 12 26 28 16 9 7 9 0 1 1 1 1 1 1 1 1 1 1 2 2 3 3 3 3 3 4 11 17 16 12 12 16 19 0 1 1 1 1 1 1 1 1 1 1 1 2 2 2 3 3 3 5 9 11 9 12 22 34 53 0 0 0 1 1 1 1 1 1 1 1 1 1 1 2 2 2 2 4 7 8 8 18 42 69 120 0 0 0 1 1 1 1 1 1 1 1 1 1 1 1 2 2 2 3 5 7 11 49 105 140 173 0 0 1 1 1 1 1 1 2 2 2 2 2 1 2 2 3 3 4 5 7 22 97 181 212 216 0 0 1 1 1 2 2 2 3 4 3 2 2 2 2 3 7 9 7 10 16 72 160 217 234 234 0 1 1 1 1 1 1 2 3 3 3 2 2 2 2 3 8 11 11 17 28 78 156 211 229 232 0 1 1 1 1 1 1 1 2 2 2 2 2 2 2 2 4 7 9 19 39 47 72 143 202 227 0 1 1 1 1 1 1 1 1 1 1 1 2 2 2 2 3 4 7 22 50 57 38 45 131 180 1 2 2 2 2 3 3 4 7 10 7 7 7 6 5 5 7 10 11 14 17 18 19 20 20 14 2 4 6 6 7 8 9 10 11 12 14 18 16 13 12 12 12 13 15 17 18 18 21 23 23 23 2 5 7 8 9 10 11 11 12 14 18 19 16 13 13 14 15 16 18 19 20 21 24 29 29 30 2 5 7 8 9 10 10 10 11 13 16 16 13 12 13 16 18 20 22 24 27 29 31 33 31 30 1 4 6 8 9 10 10 10 10 12 14 14 13 13 15 19 24 28 31 33 34 33 33 34 32 27 1 3 6 7 9 9 9 9 10 11 12 12 12 13 16 23 29 32 33 33 32 32 35 38 38 36 1 3 6 8 9 9 9 9 10 11 11 11 12 13 17 25 30 30 28 26 27 38 62 72 62 55 1 4 7 8 8 9 9 10 11 11 11 11 12 14 18 25 30 30 27 25 35 72 113 121 96 69 4 6 7 7 8 9 9 10 11 11 10 11 11 14 18 25 32 33 29 31 61 111 142 140 113 76 6 7 7 7 7 8 9 11 12 11 11 11 12 14 19 28 36 36 31 41 83 123 136 126 105 81 7 8 7 7 7 8 10 12 13 13 13 12 12 14 20 30 38 38 34 44 76 102 103 91 86 86 6 8 8 7 8 9 11 13 16 17 15 13 12 15 21 31 37 36 32 35 52 66 62 59 70 87 4 7 8 8 8 9 11 14 17 17 14 12 13 18 24 30 33 31 27 28 39 53 51 53 74 99 5 8 10 9 9 9 9 12 14 14 13 13 17 22 26 29 28 26 26 38 62 81 71 59 80 108 10 12 13 12 11 10 9 10 12 13 13 14 17 22 25 26 24 23 34 62 96 111 90 61 72 90 12 14 15 13 14 12 10 10 10 11 12 13 15 19 23 23 23 25 42 77 108 107 75 55 62 62 12 14 14 13 14 13 12 10 10 10 12 13 15 19 22 22 22 25 41 73 91 73 43 44 58 50 10 14 14 13 13 13 12 11 9 10 12 14 16 20 22 23 23 27 41 65 61 37 26 31 46 50 5 12 13 12 12 13 13 12 11 11 11 12 14 17 21 23 26 36 54 63 44 21 22 36 71 116 3 9 11 11 12 13 14 14 14 13 11 10 11 15 19 23 26 42 63 59 33 18 27 60 126 189 3 8 10 10 12 14 15 15 14 13 11 10 10 13 18 22 24 37 56 51 28 18 42 99 158 210 3 8 11 11 12 14 13 12 12 12 11 11 11 14 18 24 36 48 52 45 27 30 84 168 208 226 3 9 11 12 13 13 11 10 11 13 13 12 13 15 20 47 83 90 71 52 41 91 171 218 235 239 4 10 12 12 12 11 10 10 12 14 13 13 14 15 19 48 92 111 98 81 70 105 177 215 231 238 6 14 13 12 11 10 10 10 11 12 13 13 14 14 14 22 49 83 99 105 107 99 111 144 194 230 9 17 15 12 11 11 11 11 12 13 13 14 14 13 13 15 24 45 74 106 130 130 104 73 126 181 20 30 24 23 21 26 28 29 42 47 38 30 33 28 23 19 31 44 48 55 64 72 76 77 79 64 31 37 38 38 40 46 48 49 56 63 69 73 69 58 51 49 53 60 68 73 75 79 85 90 89 90 25 37 39 41 48 52 53 53 59 69 77 76 65 57 56 62 68 75 82 85 84 86 95 103 100 94 18 29 35 42 48 49 49 49 55 62 66 63 56 53 56 65 77 86 91 91 91 93 100 101 93 82 14 23 33 42 47 49 49 50 54 59 62 59 55 54 60 75 92 102 103 101 98 96 96 91 81 82 9 21 33 42 47 47 46 48 50 53 55 53 51 54 67 88 102 103 100 95 90 91 101 109 105 114 9 22 34 41 45 45 46 49 51 53 52 50 51 56 70 88 96 94 88 83 85 114 152 164 152 145 6 24 34 36 40 43 46 49 53 52 50 48 51 58 72 83 89 89 85 85 115 165 195 197 179 157 9 27 36 35 38 40 43 49 53 52 48 46 49 60 74 84 90 92 90 103 155 194 205 200 184 164 11 30 37 34 35 36 43 50 53 51 48 47 51 63 76 86 95 99 99 125 171 192 190 182 176 171 14 34 37 33 34 36 43 49 52 52 50 49 53 65 77 90 101 105 105 128 160 167 156 147 155 172 16 34 37 34 36 37 42 47 53 54 52 50 55 64 76 90 100 101 99 109 126 132 129 119 133 170 14 34 39 39 38 36 39 46 53 54 50 50 55 65 75 84 92 91 88 90 104 128 138 124 141 182 16 39 48 46 41 35 35 42 48 50 49 49 54 64 71 76 79 79 79 92 122 157 161 140 163 195 37 54 60 56 49 39 34 37 44 49 50 48 52 62 68 69 69 71 83 112 150 173 164 147 170 186 54 64 67 64 57 45 37 36 41 45 46 46 51 61 66 65 66 71 90 125 158 156 131 141 164 156 53 62 66 63 59 50 43 39 40 40 43 46 53 63 67 66 67 72 90 122 140 109 82 121 143 122 38 56 61 59 58 54 48 43 41 41 44 48 58 67 70 70 73 80 95 117 107 65 61 88 104 105 22 50 55 54 55 55 51 47 44 43 45 49 60 72 78 79 86 106 123 123 88 50 58 74 108 160 16 41 48 48 51 53 54 53 50 48 47 46 54 72 83 83 98 132 149 127 75 51 66 92 156 213 13 36 45 45 50 54 56 55 52 47 43 40 42 57 72 76 89 121 142 124 75 55 71 119 185 227 12 36 45 47 51 55 52 46 41 39 39 40 42 50 62 84 112 124 129 117 82 67 103 178 220 236 14 38 50 54 56 53 44 35 34 38 44 52 57 59 76 131 171 173 155 131 107 117 180 225 239 242 21 48 57 59 55 48 39 34 36 42 50 60 65 62 74 128 177 192 180 156 133 139 192 224 236 240 39 58 62 59 53 45 39 37 40 44 50 59 66 64 59 75 125 168 180 173 162 151 155 171 208 231 41 64 64 57 52 47 44 42 45 49 53 58 62 60 56 58 77 115 150 170 179 178 157 119 154 186 64 89 92 99 100 105 107 108 116 118 112 107 110 106 103 105 117 128 133 134 133 134 137 139 138 113 89 95 103 110 114 118 119 120 124 128 129 130 129 125 124 128 135 143 149 151 149 151 157 160 152 146 85 96 103 111 120 123 122 122 125 129 132 131 127 128 133 142 149 156 163 166 167 172 179 181 167 151 79 92 102 111 118 120 118 117 120 123 125 125 126 129 136 145 153 160 167 171 175 181 187 184 168 150 72 86 102 111 116 117 116 115 116 118 121 123 127 132 140 149 158 165 169 172 176 182 186 180 164 157 67 82 99 108 112 112 110 109 109 110 115 120 126 133 144 155 162 163 163 167 174 182 190 188 177 175 65 81 97 104 108 108 105 104 105 106 110 117 124 133 145 155 159 158 157 162 176 195 208 208 197 190 61 80 94 98 102 102 100 100 102 102 105 113 122 134 146 154 155 155 157 167 191 212 220 216 205 197 60 80 94 97 100 98 96 97 100 101 104 111 121 136 148 153 154 157 161 178 205 219 221 217 211 209 58 80 93 94 95 93 94 96 99 101 106 114 125 139 148 150 154 161 171 190 209 214 212 212 216 219 61 82 91 91 93 91 93 96 100 106 113 121 130 140 146 148 156 167 178 193 203 202 199 201 211 222 66 84 89 89 90 88 91 97 106 113 119 125 132 137 140 147 159 170 177 186 191 193 196 194 202 220 68 86 93 93 90 86 89 98 111 118 122 125 129 132 136 147 162 171 174 176 181 195 204 199 205 222 70 91 101 98 90 84 86 97 111 117 120 120 122 127 136 151 165 170 168 165 172 194 206 204 212 224 91 105 110 105 95 85 84 94 108 115 116 114 118 129 144 158 167 168 161 155 164 183 195 202 212 217 111 117 118 111 101 89 86 93 104 110 110 111 123 141 156 165 170 167 155 150 163 166 173 195 204 200 115 121 121 114 105 96 91 95 102 104 106 116 136 156 167 173 175 166 151 148 155 142 152 183 187 177 106 118 119 114 108 102 97 97 100 101 107 127 153 169 176 179 179 168 151 148 142 130 146 162 163 168 95 112 116 113 111 106 102 99 97 97 106 135 166 179 183 182 182 178 168 159 142 136 145 145 158 191 87 105 112 113 111 106 102 99 96 95 101 129 159 174 179 177 183 193 189 170 146 139 142 144 179 218 81 100 109 110 109 103 99 96 93 89 90 101 117 132 147 156 172 189 192 174 147 136 139 158 202 230 77 96 107 108 105 99 93 86 82 83 91 97 99 105 120 143 169 183 186 176 150 137 159 200 227 236 75 96 109 110 105 97 88 80 80 94 119 135 138 136 149 179 198 202 196 183 165 163 201 231 240 239 84 105 115 114 107 98 90 87 89 105 134 155 161 157 166 192 211 215 207 192 179 182 212 233 240 238 102 114 118 115 107 101 97 97 98 103 127 155 168 167 164 174 197 211 210 200 191 190 197 208 223 229 90 117 118 113 108 105 103 103 104 104 116 144 164 168 165 167 177 192 201 202 201 198 185 166 179 182 49 68 77 85 88 90 91 92 94 93 91 92 92 91 92 96 103 108 111 109 102 99 99 101 98 76 67 72 80 88 92 93 93 94 95 94 92 92 93 95 99 105 111 116 119 118 115 115 119 121 110 100 68 73 80 88 95 95 94 93 93 92 90 91 93 99 107 114 119 123 128 131 134 140 145 144 127 108 66 74 82 88 93 93 92 91 89 88 88 92 97 103 110 115 119 123 129 136 143 150 155 151 133 117 62 71 83 88 90 90 89 87 85 84 86 92 99 106 112 115 117 121 126 134 143 152 156 151 135 123 60 69 79 83 85 86 84 81 79 79 84 93 100 107 112 115 117 118 122 131 144 155 160 153 138 128 58 67 77 80 82 82 79 75 74 74 80 90 99 106 112 116 117 118 120 130 148 161 165 157 141 132 57 65 74 78 80 78 73 70 69 71 77 86 96 106 114 118 118 118 121 134 153 166 167 159 146 140 56 64 73 76 78 74 70 67 67 69 76 85 96 107 115 117 117 119 125 140 157 167 169 165 161 161 54 62 71 74 75 71 68 66 66 71 79 89 100 109 114 114 114 121 133 147 158 164 167 170 174 178 56 62 68 71 72 69 67 67 70 77 87 97 105 110 110 109 114 126 140 150 156 158 161 165 174 182 58 63 67 69 69 66 66 70 78 86 94 101 105 106 105 107 118 132 143 150 153 157 161 161 169 181 60 65 69 69 66 64 66 74 84 92 97 101 102 101 101 111 127 138 144 145 149 158 164 164 170 180 62 67 72 69 65 63 65 75 86 93 95 96 96 98 105 122 137 143 140 134 133 144 158 165 169 174 71 73 75 71 65 62 64 73 85 90 90 90 93 101 116 134 144 144 133 118 112 121 142 156 159 161 80 81 79 72 66 63 64 72 82 85 86 88 98 115 132 144 150 144 124 106 102 106 127 146 145 145 86 87 84 76 70 66 67 73 79 82 83 93 113 132 145 153 155 143 118 101 97 97 121 138 133 131 87 88 85 79 74 70 69 72 76 78 83 105 130 146 154 158 157 140 114 101 96 102 121 127 123 130 83 85 86 83 79 75 72 72 72 72 81 113 144 156 159 159 156 141 120 110 107 116 121 115 123 148 78 82 86 87 83 76 71 69 68 67 74 107 139 149 150 149 150 147 133 121 116 117 114 110 135 168 74 80 85 86 81 72 66 64 63 61 64 79 96 105 114 125 139 148 142 128 116 110 108 119 152 178 70 76 83 82 76 67 61 58 57 60 68 75 75 78 88 103 123 140 143 131 114 108 123 151 174 182 68 74 81 80 72 65 61 59 60 74 97 110 111 109 114 126 136 144 144 133 119 122 154 182 191 185 72 77 83 80 74 69 67 68 69 82 111 131 135 133 137 152 161 161 151 136 128 138 166 187 193 185 79 81 83 80 76 74 75 76 76 79 102 131 144 144 142 150 162 165 159 146 137 140 153 164 173 172 64 82 82 80 78 78 79 81 79 77 89 119 141 146 146 146 152 159 160 154 145 138 131 125 131 121 0 0 0 0 0 0 0 0 0 0 0 0 0 0 0 0 0 0 0 0 0 0 0 0 0 0 0 0 0 0 0 0 0 0 0 0 0 0 0 0 0 0 0 0 0 0 0 0 0 0 0 0 0 0 0 0 0 0 0 0 0 0 0 0 0 0 0 0 0 0 0 0 0 0 0 0 0 0 0 0 0 0 0 0 0 0 0 0 0 0 0 0 0 0 0 0 0 0 0 0 0 0 0 0 0 0 0 0 0 0 0 0 0 0 0 0 0 0 0 0 0 0 0 0 0 0 0 0 0 0 0 0 0 0 0 0 0 0 0 0 0 0 0 0 0 0 0 0 0 0 0 0 0 0 0 0 0 0 0 0 0 0 0 0 0 0 0 0 0 0 0 0 0 0 0 0 0 0 0 0 0 0 0 0 0 0 0 0 0 0 0 0 0 0 0 0 0 0 0 0 0 0 0 0 0 0 0 0 0 0 0 0 0 0 0 0 0 0 0 0 0 0 0 0 0 0 0 0 0 0 0 0 0 0 0 0 0 0 0 0 0 0 0 0 0 0 0 0 0 0 0 0 0 0 0 0 0 0 0 0 0 0 0 0 0 0 0 0 0 0 0 0 0 0 0 0 0 0 0 0 0 0 0 0 0 0 0 0 0 0 0 0 0 0 0 0 0 0 0 0 0 0 0 0 0 0 0 0 0 0 0 0 0 0 0 0 0 0 0 0 0 0 0 0 0 0 0 0 0 0 0 0 0 0 0 0 0 0 0 0 0 0 0 0 0 0 0 0 0 0 0 0 0 0 0 0 0 0 0 0 0 0 0 0 0 0 0 0 0 0 0 0 0 0 0 0 0 0 0 0 0 0 0 0 0 0 0 0 0 0 0 0 0 0 0 0 0 0 0 0 0 0 0 0 0 0 0 0 0 0 0 0 0 0 0 0 0 0 0 0 0 0 0 0 0 0 0 0 0 0 0 0 0 0 0 0 0 0 0 0 0 0 0 0 0 0 0 0 0 0 0 0 0 0 0 0 0 0 0 0 0 0 0 0 0 0 0 0 0 0 0 0 0 0 0 0 0 0 0 0 0 0 0 0 0 0 0 0 0 0 0 0 0 0 0 0 0 0 0 0 0 0 0 0 0 0 0 0 0 0 0 0 0 0 0 0 0 0 0 0 0 0 0 0 0 0 0 0 0 0 0 0 0 0 0 0 0 0 0 0 0 0 0 0 0 0 0 0 0 0 0 0 0 0 0 0 0 0 0 0 0 0 0 0 0 0 0 0 0 0 0 0 0 0 0 0 0 0 0 0 0 0 0 0 0 0 0 0 0 0 0 0 0 0 0 0 0 0 0 0 0 0 0 0 0 0 0 0 0 0 0 0 0 0 0 0 0 0 0 0 0 0 0 0 0 0 0 0 0 0 0 0 0 0 0 0 0 0 0 0 0 0 0 0 0 0 0 0 0 0 0 0 0 0 0 0 0 0 0 0 0 0 0 0 0 0 0 0 0 0 0 0 0 0 0 0 
</DataArray>
<DataArray Name="HRRPUV" NumberOfComponents="1" type="UInt8" format="ascii">