<?xml version="1.0"?>
<VTKFile type="RectilinearGrid" version="1.0" byte_order="LittleEndian" header_type="UInt64">
<RectilinearGrid WholeExtent="25 50 25 50 0 15">
<Piece Extent="25 50 25 50 0 15">
<Coordinates>
<DataArray type="Float64" Name="Array X-Axis" format="ascii" RangeMin="15.0" RangeMax="30.0">
15.0 15.6 16.2 16.8 17.4 18.0 18.6 19.2 19.8 20.4 21.0 21.6 22.2 22.8 23.4 24.0 24.6 25.2 25.8 26.4 27.0 27.6 28.2 28.8 29.4 30.0 
</DataArray>
<DataArray type="Float64" Name="Array Y-Axis" format="ascii" RangeMin="15.0" RangeMax="30.0">
15.0 15.6 16.2 16.8 17.4 18.0 18.6 19.2 19.8 20.4 21.0 21.6 22.2 22.8 23.4 24.0 24.6 25.2 25.8 26.4 27.0 27.6 28.2 28.8 29.4 30.0 
</DataArray>
<DataArray type="Float64" Name="Array Z-Axis" format="ascii" RangeMin="0.0" RangeMax="9.0">
0.0 0.6 1.2 1.8 2.4 3.0 3.6 4.2 4.8 5.4 6.0 6.6 7.2 7.8 8.4 9.0 
</DataArray>
</Coordinates>
<PointData>
<DataArray Name="SOOT DENSITY" NumberOfComponents="1" type="UInt8" format="ascii">
0 0 0 0 0 1 1 0 0 0 0 0 0 0 0 0 0 0 0 0 0 0 0 0 0 0 0 0 0 0 0 0 0 0 0 0 0 0 0 0 0 0 0 0 0 0 0 0 0 0 0 0 0 0 0 0 0 0 0 0 0 0 0 0 0 0 0 0 0 0 0 0 0 0 0 0 0 0 0 0 0 0 0 0 0 0 0 0 0 0 0 0 0 0 0 0 0 0 0 0 0 0 0 0 0 0 0 0 0 0 0 0 0 0 0 0 0 0 0 0 0 0 0 0 0 0 0 0 0 0 0 0 0 0 0 0 0 0 0 0 0 0 0 0 0 0 0 0 0 0 0 0 0 0 0 0 0 0 0 0 0 0 0 0 0 0 0 0 0 0 0 0 0 0 0 0 0 0 0 0 0 0 0 0 0 0 0 0 0 0 0 0 0 0 0 0 0 0 0 0 0 0 0 0 0 0 0 0 0 0 0 0 0 0 0 0 0 0 0 0 0 0 0 0 0 0 0 0 0 0 0 0 0 0 0 0 0 0 0 0 0 0 0 0 0 0 0 0 0 0 0 0 0 0 0 0 0 0 0 0 0 0 0 0 0 0 0 0 0 0 0 0 0 0 0 0 0 0 0 0 0 0 0 0 0 0 0 0 0 0 0 0 0 0 0 0 0 0 0 0 0 0 0 0 0 0 0 0 0 0 0 0 0 0 0 0 0 0 0 0 0 0 0 0 0 0 0 0 0 0 0 0 0 0 0 0 0 0 0 0 0 0 0 0 0 0 0 0 0 0 0 0 0 0 0 0 0 0 0 0 0 0 0 0 0 0 0 0 0 0 0 0 0 0 0 0 0 0 0 0 0 0 0 0 0 0 0 0 0 0 0 0 0 0 0 0 0 0 0 0 0 0 0 0 0 0 0 0 0 0 0 0 0 0 0 0 0 0 0 0 0 0 0 0 0 0 0 0 0 0 0 0 0 0 0 0 0 0 0 0 0 0 0 0 0 0 0 0 0 0 0 0 0 0 0 0 0 0 0 0 0 0 0 0 0 0 0 0 0 0 0 0 0 0 0 0 0 0 0 0 0 0 0 0 0 0 0 0 0 0 0 0 0 0 0 0 0 0 0 0 0 0 0 0 0 0 0 0 0 0 0 0 0 0 0 0 0 0 0 0 0 0 0 0 0 0 0 0 0 0 0 0 0 0 0 0 0 0 0 0 0 0 0 0 0 0 0 0 0 0 0 0 0 0 0 0 0 0 0 0 0 0 0 0 0 0 0 0 0 0 0 0 0 0 0 0 0 0 0 0 0 0 0 0 0 0 0 0 0 0 0 0 0 0 0 0 0 0 0 0 0 0 0 0 0 0 0 0 0 0 0 0 0 0 0 0 0 0 0 0 0 0 0 0 0 0 0 0 0 0 0 0 0 0 0 0 0 0 0 0 0 0 0 0 0 0 0 0 0 0 0 0 0 0 0 0 0 0 0 0 0 0 0 0 0 0 0 0 0 0 0 0 0 0 0 0 0 0 0 1 3 3 3 4 3 0 0 0 0 0 0 0 0 0 0 0 0 0 0 0 0 0 0 0 0 0 0 0 0 0 0 0 0 0 0 0 0 0 0 0 0 0 0 0 0 0 0 0 0 0 0 0 0 0 0 0 0 0 0 0 0 0 0 0 0 0 0 0 0 0 0 0 0 0 0 0 0 0 0 0 0 0 0 0 0 0 0 0 0 0 0 0 0 0 0 0 0 0 0 0 0 0 0 0 0 0 0 0 0 0 0 0 0 0 0 0 0 0 0 0 0 0 0 0 0 0 0 0 0 0 0 0 0 0 0 0 0 0 0 0 0 0 0 0 0 0 0 0 0 0 0 0 0 0 0 0 0 0 0 0 0 0 0 0 0 0 0 0 0 0 0 0 0 0 0 0 0 0 0 0 0 0 0 0 0 0 0 0 0 0 0 0 0 0 0 0 0 0 0 0 0 0 0 0 0 0 0 0 0 0 0 0 0 0 0 0 0 0 0 0 0 0 0 0 0 0 0 0 0 0 0 0 0 0 0 0 0 0 0 0 0 0 0 0 0 0 0 0 0 0 0 0 0 0 0 0 0 0 0 0 0 0 0 0 0 0 0 0 0 0 0 0 0 0 0 0 0 0 0 0 0 0 0 0 0 0 0 0 0 0 0 0 0 0 0 0 0 0 0 0 0 0 0 0 0 0 0 0 0 0 0 0 0 0 0 0 0 0 0 0 0 0 0 0 0 0 0 0 0 0 0 0 0 0 0 0 0 0 0 0 0 0 0 0 0 0 0 0 0 0 0 0 0 0 0 0 0 0 0 0 0 0 0 0 0 0 0 0 0 0 0 0 0 0 0 0 0 0 0 0 0 0 0 0 0 0 0 0 0 0 0 0 0 0 0 0 0 0 0 0 0 0 0 0 0 0 0 0 0 0 0 0 0 0 0 0 0 0 0 0 0 0 0 0 0 0 0 0 0 0 0 0 0 0 0 0 0 0 0 0 0 0 0 0 0 0 0 0 0 0 0 0 0 0 0 0 0 0 0 0 0 0 0 0 0 0 0 0 0 0 0 0 0 0 0 0 0 0 0 0 0 0 0 0 0 0 0 0 0 0 0 0 0 0 0 0 0 0 0 0 0 0 0 0 0 0 0 0 0 0 0 0 0 0 0 0 0 0 0 0 0 0 0 0 0 0 0 0 0 0 0 0 0 0 0 0 0 0 0 0 0 0 0 0 0 0 0 0 0 0 0 0 0 0 0 0 0 0 0 0 0 0 0 0 0 0 0 0 0 0 0 0 0 0 0 0 0 0 0 0 0 0 0 0 0 0 0 0 0 0 0 0 0 0 0 0 0 0 0 0 0 0 0 0 0 0 0 0 0 0 0 0 0 0 0 0 0 0 0 0 0 0 0 0 0 0 0 0 0 0 0 0 0 0 0 0 0 0 0 0 0 0 0 0 0 0 0 0 0 0 0 0 0 0 0 0 0 0 0 0 0 0 0 0 0 0 0 0 0 0 0 0 0 0 3 17 19 8 7 8 3 0 0 0 0 0 0 0 0 0 0 0 0 0 0 0 0 0 0 0 0 0 1 0 0 0 0 0 0 0 0 0 0 0 0 0 0 0 0 0 0 0 0 0 0 0 0 0 0 0 0 0 0 0 0 0 0 0 0 0 0 0 0 0 0 0 0 0 0 0 0 0 0 0 0 0 0 0 0 0 0 0 0 0 0 0 0 0 0 0 0 0 0 0 0 0 0 0 0 0 0 0 0 0 0 0 0 0 0 0 0 0 0 0 0 0 0 0 0 0 0 0 0 0 0 0 0 0 0 0 0 0 0 0 0 0 0 0 0 0 0 0 0 0 0 0 0 0 0 0 0 0 0 0 0 0 0 0 0 0 0 0 0 0 0 0 0 0 0 0 0 0 0 0 0 0 0 0 0 0 0 0 0 0 0 0 0 0 0 0 0 0 0 0 0 0 0 0 0 0 0 0 0 0 0 0 0 0 0 0 0 0 0 0 0 0 0 0 0 0 0 0 0 0 0 0 0 0 0 0 0 0 0 0 0 0 0 0 0 0 0 0 0 0 0 0 0 0 0 0 0 0 0 0 0 0 0 0 0 0 0 0 0 0 0 0 0 0 0 0 0 0 0 0 0 0 0 0 0 0 0 0 0 0 0 0 0 0 0 0 0 0 0 0 0 0 0 0 0 0 0 0 0 0 0 0 0 0 0 0 0 0 0 0 0 0 0 0 0 0 0 0 0 0 0 0 0 0 0 0 0 0 0 0 0 0 0 0 0 0 0 0 0 0 0 0 0 0 0 0 0 0 0 0 0 0 0 0 0 0 0 0 0 0 0 0 0 0 0 0 0 0 0 0 0 0 0 0 0 0 0 0 0 0 0 0 0 0 0 0 0 0 0 0 0 0 0 0 0 0 0 0 0 0 0 0 0 0 0 0 0 0 0 0 0 0 0 0 0 0 0 0 0 0 0 0 0 0 0 0 0 0 0 0 0 0 0 0 0 0 0 0 0 0 0 0 0 0 0 0 0 0 0 0 0 0 0 0 0 0 0 0 0 0 0 0 0 0 0 0 0 0 0 0 0 0 0 0 0 0 0 0 0 0 0 0 0 0 0 0 0 0 0 0 0 0 0 0 0 0 0 0 0 0 0 0 0 0 0 0 0 0 0 0 0 0 0 0 0 0 0 0 0 0 0 0 0 0 0 0 0 0 0 0 0 0 0 0 0 0 0 0 0 0 0 0 0 0 0 0 0 0 0 0 0 0 0 0 0 0 0 0 0 0 0 0 0 0 0 0 0 0 0 0 0 0 0 0 0 0 0 0 0 0 0 0 0 0 0 0 0 0 0 0 0 0 0 0 0 0 0 0 0 0 0 0 0 0 0 0 0 0 0 0 0 0 0 0 0 0 0 0 0 0 0 0 0 0 0 0 0 0 0 0 0 0 0 0 0 0 0 0 0 0 0 0 0 0 0 0 0 0 0 0 0 0 0 0 0 0 0 0 0 0 0 0 0 0 0 0 4 22 39 27 12 8 4 2 0 0 0 0 0 0 0 0 0 0 0 0 0 0 0 0 0 0 0 1 1 1 0 0 0 0 0 0 0 0 0 0 0 0 0 0 0 0 0 0 0 0 0 0 0 0 0 0 0 0 0 0 0 0 0 0 0 0 0 0 0 0 0 0 0 0 0 0 0 0 0 0 0 0 0 0 0 0 0 0 0 0 0 0 0 0 0 0 0 0 0 0 0 0 0 0 0 0 0 0 0 0 0 0 0 0 0 0 0 0 0 0 0 0 0 0 0 0 0 0 0 0 0 0 0 0 0 0 0 0 0 0 0 0 0 0 0 0 0 0 0 0 0 0 0 0 0 0 0 0 0 0 0 0 0 0 0 0 0 0 0 0 0 0 0 0 0 0 0 0 0 0 0 0 0 0 0 0 0 0 0 0 0 0 0 0 0 0 0 0 0 0 0 0 0 0 0 0 0 0 0 0 0 0 0 0 0 0 0 0 0 0 0 0 0 0 0 0 0 0 0 0 0 0 0 0 0 0 0 0 0 0 0 0 0 0 0 0 0 0 0 0 0 0 0 0 0 0 0 0 0 0 0 0 0 0 0 0 0 0 0 0 0 0 0 0 0 0 0 0 0 0 0 0 0 0 0 0 0 0 0 0 0 0 0 0 0 0 0 0 0 0 0 0 0 0 0 0 0 0 0 0 0 0 0 0 0 0 0 0 0 0 0 0 0 0 0 0 0 0 0 0 0 0 0 0 0 0 0 0 0 0 0 0 0 0 0 0 0 0 0 0 0 0 0 0 0 0 0 0 0 0 0 0 0 0 0 0 0 0 0 0 0 0 0 0 0 0 0 0 0 0 0 0 0 0 0 0 0 0 0 0 0 0 0 0 0 0 0 0 0 0 0 0 0 0 0 0 0 0 0 0 0 0 0 0 0 0 0 0 0 0 0 0 0 0 0 0 0 0 0 0 0 0 0 0 0 0 0 0 0 0 0 0 0 0 0 0 0 0 0 0 0 0 0 0 0 0 0 0 0 0 0 0 0 0 0 0 0 0 0 0 0 0 0 0 0 0 0 0 0 0 0 0 0 0 0 0 0 0 0 0 0 0 0 0 0 0 0 0 0 0 0 0 0 0 0 0 0 0 0 0 0 0 0 0 0 0 0 0 0 0 0 0 0 0 0 0 0 0 0 0 0 0 0 0 0 0 0 0 0 0 0 0 0 0 0 0 0 0 0 0 0 0 0 0 0 0 0 0 0 0 0 0 0 0 0 0 0 0 0 0 0 0 0 0 0 0 0 0 0 0 0 0 0 0 0 0 0 0 0 0 0 0 0 0 0 0 0 0 0 0 0 0 0 0 0 0 0 0 0 0 0 0 0 0 0 0 0 0 0 0 0 0 0 0 0 0 0 0 0 0 0 0 0 0 0 0 0 0 0 0 0 0 0 0 0 0 0 0 0 0 0 0 0 0 0 0 0 0 0 0 0 0 0 0 0 0 0 0 0 0 0 0 0 0 1 2 4 15 48 45 14 10 5 2 0 0 0 0 0 0 0 0 0 0 0 0 0 0 0 0 0 0 0 1 2 2 0 0 0 0 0 0 0 0 0 0 0 0 0 0 0 0 0 0 0 0 0 0 0 0 0 0 0 0 0 0 0 0 0 0 0 0 0 0 0 0 0 0 0 0 0 0 0 0 0 0 0 0 0 0 0 0 0 0 0 0 0 0 0 0 0 0 0 0 0 0 0 0 0 0 0 0 0 0 0 0 0 0 0 0 0 0 0 0 0 0 0 0 0 0 0 0 0 0 0 0 0 0 0 0 0 0 0 0 0 0 0 0 0 0 0 0 0 0 0 0 0 0 0 0 0 0 0 0 0 0 0 0 0 0 0 0 0 0 0 0 0 0 0 0 0 0 0 0 0 0 0 0 0 0 0 0 0 0 0 0 0 0 0 0 0 0 0 0 0 0 0 0 0 0 0 0 0 0 0 0 0 0 0 0 0 0 0 0 0 0 0 0 0 0 0 0 0 0 0 0 0 0 0 0 0 0 0 0 0 0 0 0 0 0 0 0 0 0 0 0 0 0 0 0 0 0 0 0 0 0 0 0 0 0 0 0 0 0 0 0 0 0 0 0 0 0 0 0 0 0 0 0 0 0 0 0 0 0 0 0 0 0 0 0 0 0 0 0 0 0 0 0 0 0 0 0 0 0 0 0 0 0 0 0 0 0 0 0 0 0 0 0 0 0 0 0 0 0 0 0 0 0 0 0 0 0 0 0 0 0 0 0 0 0 0 0 0 0 0 0 0 0 0 0 0 0 0 0 0 0 0 0 0 0 0 0 0 0 0 0 0 0 0 0 0 0 0 0 0 0 0 0 0 0 0 0 0 0 0 0 0 0 0 0 0 0 0 0 0 0 0 0 0 0 0 0 0 0 0 0 0 0 0 0 0 0 0 0 0 0 0 0 0 0 0 0 0 0 0 0 0 0 0 0 0 0 0 0 0 0 0 0 0 0 0 0 0 0 0 0 0 0 0 0 0 0 0 0 0 0 0 0 0 0 0 0 0 0 0 0 0 0 0 0 0 0 0 0 0 0 0 0 0 0 0 0 0 0 0 0 0 0 0 0 0 0 0 0 0 0 0 0 0 0 0 0 0 0 0 0 0 0 0 0 0 0 0 0 0 0 0 0 0 0 0 0 0 0 0 0 0 0 0 0 0 0 0 0 0 0 0 0 0 0 0 0 0 0 0 0 0 0 0 0 0 0 0 0 0 0 0 0 0 0 0 0 0 0 0 0 0 0 0 0 0 0 0 0 0 0 0 0 0 0 0 0 0 0 0 0 0 0 0 0 0 0 0 0 0 0 0 0 0 0 0 0 0 0 0 0 0 0 0 0 0 0 0 0 0 0 0 0 0 0 0 0 0 0 0 0 0 0 0 0 0 0 0 0 0 0 0 0 0 0 0 0 0 0 0 0 0 0 0 0 0 0 0 0 0 0 0 0 0 0 0 0 0 0 0 0 0 0 0 0 21 27 10 13 37 33 12 11 7 2 0 0 0 0 0 0 0 0 0 0 0 0 0 0 0 0 2 1 1 1 2 2 0 0 0 0 0 0 0 0 0 0 0 0 0 0 0 0 0 0 0 0 0 0 0 0 0 0 0 0 0 0 0 0 0 0 0 0 0 0 0 0 0 0 0 0 0 0 0 0 0 0 0 0 0 0 0 0 0 0 0 0 0 0 0 0 0 0 0 0 0 0 0 0 0 0 0 0 0 0 0 0 0 0 0 0 0 0 0 0 0 0 0 0 0 0 0 0 0 0 0 0 0 0 0 0 0 0 0 0 0 0 0 0 0 0 0 0 0 0 0 0 0 0 0 0 0 0 0 0 0 0 0 0 0 0 0 0 0 0 0 0 0 0 0 0 0 0 0 0 0 0 0 0 0 0 0 0 0 0 0 0 0 0 0 0 0 0 0 0 0 0 0 0 0 0 0 0 0 0 0 0 0 0 0 0 0 0 0 0 0 0 0 0 0 0 0 0 0 0 0 0 0 0 0 0 0 0 0 0 0 0 0 0 0 0 0 0 0 0 0 0 0 0 0 0 0 0 0 0 0 0 0 0 0 0 0 0 0 0 0 0 0 0 0 0 0 0 0 0 0 0 0 0 0 0 0 0 0 0 0 0 0 0 0 0 0 0 0 0 0 0 0 0 0 0 0 0 0 0 0 0 0 0 0 0 0 0 0 0 0 0 0 0 0 0 0 0 0 0 0 0 0 0 0 0 0 0 0 0 0 0 0 0 0 0 0 0 0 0 0 0 0 0 0 0 0 0 0 0 0 0 0 0 0 0 0 0 0 0 0 0 0 0 0 0 0 0 0 0 0 0 0 0 0 0 0 0 0 0 0 0 0 0 0 0 0 0 0 0 0 0 0 0 0 0 0 0 0 0 0 0 0 0 0 0 0 0 0 0 0 0 0 0 0 0 0 0 0 0 0 0 0 0 0 0 0 0 0 0 0 0 0 0 0 0 0 0 0 0 0 0 0 0 0 0 0 0 0 0 0 0 0 0 0 0 0 0 0 0 0 0 0 0 0 0 0 0 0 0 0 0 0 0 0 0 0 0 0 0 0 0 0 0 0 0 0 0 0 0 0 0 0 0 0 0 0 0 0 0 0 0 0 0 0 0 0 0 0 0 0 0 0 0 0 0 0 0 0 0 0 0 0 0 0 0 0 0 0 0 0 0 0 0 0 0 0 0 0 0 0 0 0 0 0 0 0 0 0 0 0 0 0 0 0 0 0 0 0 0 0 0 0 0 0 0 0 0 0 0 0 0 0 0 0 0 0 0 0 0 0 0 0 0 0 0 0 0 0 0 0 0 0 0 0 0 0 0 0 0 0 0 0 0 0 0 0 0 0 0 0 0 0 0 0 0 0 0 0 0 0 0 0 0 0 0 0 0 0 0 0 0 0 0 0 0 0 0 0 0 0 0 0 0 0 0 0 0 0 0 0 0 0 0 0 0 0 0 0 0 0 0 0 0 0 0 42 58 25 13 16 12 8 9 6 1 0 0 0 0 0 0 0 0 0 0 0 0 0 0 0 0 4 4 4 3 2 1 1 1 0 0 0 0 0 0 0 0 0 0 0 0 0 0 0 0 0 0 0 0 1 1 0 0 0 0 0 0 0 0 0 0 0 0 0 0 0 0 0 0 0 0 0 0 0 0 0 0 0 0 0 0 0 0 0 0 0 0 0 0 0 0 0 0 0 0 0 0 0 0 0 0 0 0 0 0 0 0 0 0 0 0 0 0 0 0 0 0 0 0 0 0 0 0 0 0 0 0 0 0 0 0 0 0 0 0 0 0 0 0 0 0 0 0 0 0 0 0 0 0 0 0 0 0 0 0 0 0 0 0 0 0 0 0 0 0 0 0 0 0 0 0 0 0 0 0 0 0 0 0 0 0 0 0 0 0 0 0 0 0 0 0 0 0 0 0 0 0 0 0 0 0 0 0 0 0 0 0 0 0 0 0 0 0 0 0 0 0 0 0 0 0 0 0 0 0 0 0 0 0 0 0 0 0 0 0 0 0 0 0 0 0 0 0 0 0 0 0 0 0 0 0 0 0 0 0 0 0 0 0 0 0 0 0 0 0 0 0 0 0 0 0 0 0 0 0 0 0 0 0 0 0 0 0 0 0 0 0 0 0 0 0 0 0 0 0 0 0 0 0 0 0 0 0 0 0 0 0 0 0 0 0 0 0 0 0 0 0 0 0 0 0 0 0 0 0 0 0 0 0 0 0 0 0 0 0 0 0 0 0 0 0 0 0 0 0 0 0 0 0 0 0 0 0 0 0 0 0 0 0 0 0 0 0 0 0 0 0 0 0 0 0 0 0 0 0 0 0 0 0 0 0 0 0 0 0 0 0 0 0 0 0 0 0 0 0 0 0 0 0 0 0 0 0 0 0 0 0 0 0 0 0 0 0 0 0 0 0 0 0 0 0 0 0 0 0 0 0 0 0 0 0 0 0 0 0 0 0 0 0 0 0 0 0 0 0 0 0 0 0 0 0 0 0 0 0 0 0 0 0 0 0 0 0 0 0 0 0 0 0 0 0 0 0 0 0 0 0 0 0 0 0 0 0 0 0 0 0 0 0 0 0 0 0 0 0 0 0 0 0 0 0 0 0 0 0 0 0 0 0 0 0 0 0 0 0 0 0 0 0 0 0 0 0 0 0 0 0 0 0 0 0 0 0 0 0 0 0 0 0 0 0 0 0 0 0 0 0 0 0 0 0 0 0 0 0 0 0 0 0 0 0 0 0 0 0 0 0 0 0 0 0 0 0 0 0 0 0 0 0 0 0 0 0 0 0 0 0 0 0 0 0 0 0 0 0 0 0 0 0 0 0 0 0 0 0 0 0 0 0 0 0 0 0 0 0 0 0 0 0 0 0 0 0 0 0 0 0 0 0 0 0 0 0 0 0 0 0 0 0 0 0 0 0 0 0 0 0 0 0 0 0 0 0 0 0 0 0 0 0 0 0 0 0 0 0 0 0 0 0 0 0 40 60 37 29 22 9 7 7 5 2 0 0 0 0 0 0 0 0 0 0 0 0 0 0 0 0 11 16 18 16 6 2 1 1 0 0 0 0 0 0 0 0 0 0 0 0 0 0 0 0 0 0 4 7 10 8 1 0 0 0 0 0 0 0 0 0 0 0 0 0 0 0 0 0 0 0 0 0 0 1 1 0 0 0 0 0 0 0 0 0 0 0 0 0 0 0 0 0 0 0 0 0 0 0 0 0 0 0 0 0 0 0 0 0 0 0 0 0 0 0 0 0 0 0 0 0 0 0 0 0 0 0 0 0 0 0 0 0 0 0 0 0 0 0 0 0 0 0 0 0 0 0 0 0 0 0 0 0 0 0 0 0 0 0 0 0 0 0 0 0 0 0 0 0 0 0 0 0 0 0 0 0 0 0 0 0 0 0 0 0 0 0 0 0 0 0 0 0 0 0 0 0 0 0 0 0 0 0 0 0 0 0 0 0 0 0 0 0 0 0 0 0 0 0 0 0 0 0 0 0 0 0 0 0 0 0 0 0 0 0 0 0 0 0 0 0 0 0 0 0 0 0 0 0 0 0 0 0 0 0 0 0 0 0 0 0 0 0 0 0 0 0 0 0 0 0 0 0 0 0 0 0 0 0 0 0 0 0 0 0 0 0 0 0 0 0 0 0 0 0 0 0 0 0 0 0 0 0 0 0 0 0 0 0 0 0 0 0 0 0 0 0 0 0 0 0 0 0 0 0 0 0 0 0 0 0 0 0 0 0 0 0 0 0 0 0 0 0 0 0 0 0 0 0 0 0 0 0 0 0 0 0 0 0 0 0 0 0 0 0 0 0 0 0 0 0 0 0 0 0 0 0 0 0 0 0 0 0 0 0 0 0 0 0 0 0 0 0 0 0 0 0 0 0 0 0 0 0 0 0 0 0 0 0 0 0 0 0 0 0 0 0 0 0 0 0 0 0 0 0 0 0 0 0 0 0 0 0 0 0 0 0 0 0 0 0 0 0 0 0 0 0 0 0 0 0 0 0 0 0 0 0 0 0 0 0 0 0 0 0 0 0 0 0 0 0 0 0 0 0 0 0 0 0 0 0 0 0 0 0 0 0 0 0 0 0 0 0 0 0 0 0 0 0 0 0 0 0 0 0 0 0 0 0 0 0 0 0 0 0 0 0 0 0 0 0 0 0 0 0 0 0 0 0 0 0 0 0 0 0 0 0 0 0 0 0 0 0 0 0 0 0 0 0 0 0 0 0 0 0 0 0 0 0 0 0 0 0 0 0 0 0 0 0 0 0 0 0 0 0 0 0 0 0 0 0 0 0 0 0 0 0 0 0 0 0 0 0 0 0 0 0 0 0 0 0 0 0 0 0 0 0 0 0 0 0 0 0 0 0 0 0 0 0 0 0 0 0 0 0 0 0 0 0 0 0 0 0 0 0 0 0 0 0 0 0 0 0 0 0 0 0 0 0 0 0 0 0 0 0 0 0 0 0 0 0 0 0 0 0 0 0 0 0 0 0 54 73 60 55 40 18 12 10 7 3 1 0 0 0 0 0 0 0 0 0 0 0 0 0 0 0 53 71 58 37 16 5 2 1 1 0 0 0 0 0 0 0 0 0 0 0 0 0 0 0 0 0 31 49 37 19 4 1 0 0 0 0 0 0 0 0 0 0 0 0 0 0 0 0 0 0 0 0 4 7 5 1 0 0 0 0 0 0 0 0 0 0 0 0 0 0 0 0 0 0 0 0 0 0 0 0 0 0 0 0 0 0 0 0 0 0 0 0 0 0 0 0 0 0 0 0 0 0 0 0 0 0 0 0 0 0 0 0 0 0 0 0 0 0 0 0 0 0 0 0 0 0 0 0 0 0 0 0 0 0 0 0 0 0 0 0 0 0 0 0 0 0 0 0 0 0 0 0 0 0 0 0 0 0 0 0 0 0 0 0 0 0 0 0 0 0 0 0 0 0 0 0 0 0 0 0 0 0 0 0 0 0 0 0 0 0 0 0 0 0 0 0 0 0 0 0 0 0 0 0 0 0 0 0 0 0 0 0 0 0 0 0 0 0 0 0 0 0 0 0 0 0 0 0 0 0 0 0 0 0 0 0 0 0 0 0 0 0 0 0 0 0 0 0 0 0 0 0 0 0 0 0 0 0 0 0 0 0 0 0 0 0 0 0 0 0 0 0 0 0 0 0 0 0 0 0 0 0 0 0 0 0 0 0 0 0 0 0 0 0 0 0 0 0 0 0 0 0 0 0 0 0 0 0 0 0 0 0 0 0 0 0 0 0 0 0 0 0 0 0 0 0 0 0 0 0 0 0 0 0 0 0 0 0 0 0 0 0 0 0 0 0 0 0 0 0 0 0 0 0 0 0 0 0 0 0 0 0 0 0 0 0 0 0 0 0 0 0 0 0 0 0 0 0 0 0 0 0 0 0 0 0 0 0 0 0 0 0 0 0 0 0 0 0 0 0 0 0 0 0 0 0 0 0 0 0 0 0 0 0 0 0 0 0 0 0 0 0 0 0 0 0 0 0 0 0 0 0 0 0 0 0 0 0 0 0 0 0 0 0 0 0 0 0 0 0 0 0 0 0 0 0 0 0 0 0 0 0 0 0 0 0 0 0 0 0 0 0 0 0 0 0 0 0 0 0 0 0 0 0 0 0 0 0 0 0 0 0 0 0 0 0 0 0 0 0 0 0 0 0 0 0 0 0 0 0 0 0 0 0 0 0 0 0 0 0 0 0 0 0 0 0 0 0 0 0 0 0 0 0 0 0 0 0 0 0 0 0 0 0 0 0 0 0 0 0 0 0 0 0 0 0 0 0 0 0 0 0 0 0 0 0 0 0 0 0 0 0 0 0 0 0 0 0 0 0 0 0 0 0 0 0 0 0 0 0 0 0 0 0 0 0 0 0 0 0 0 0 0 0 0 0 0 0 0 0 0 0 0 0 0 0 0 0 0 0 0 0 0 0 0 0 0 0 0 0 0 0 0 0 0 0 0 0 0 0 0 0 0 0 0 0 0 0 0 0 104 123 110 96 64 28 14 12 9 6 3 1 0 0 0 0 0 0 0 0 0 0 0 0 0 0 124 145 128 90 44 13 3 2 1 1 1 0 0 0 0 0 0 0 0 0 0 0 0 0 0 0 83 119 94 53 17 1 0 0 0 0 0 0 0 0 0 0 0 0 0 1 1 1 0 0 0 0 19 33 21 7 2 0 0 0 0 0 0 0 0 0 0 0 0 0 1 1 1 1 0 0 0 0 0 0 0 0 0 0 0 0 0 0 0 0 0 0 0 0 0 0 1 1 1 1 0 0 0 0 0 0 0 0 0 0 0 0 0 0 0 0 0 0 0 0 0 0 0 1 1 0 0 0 0 0 0 0 0 0 0 0 0 0 0 0 0 0 0 0 0 0 0 0 0 0 0 0 0 0 0 0 0 0 0 1 1 1 0 0 0 0 0 0 0 0 0 0 0 0 0 0 0 0 0 0 0 0 0 0 1 2 2 1 1 0 0 0 0 0 0 0 0 0 0 0 0 0 0 0 0 0 0 0 0 0 1 3 3 2 1 0 0 0 0 0 0 0 0 0 0 0 0 0 0 0 0 0 0 0 0 0 2 4 4 2 1 0 0 0 0 0 0 0 0 0 0 0 0 0 0 0 0 0 0 0 0 0 2 4 3 1 0 0 0 0 0 0 0 0 0 0 0 0 0 0 0 0 0 0 0 0 0 0 1 2 2 1 0 0 0 0 0 0 0 0 0 0 0 0 0 0 0 0 0 0 0 0 0 0 1 1 1 0 0 0 0 0 0 0 0 0 0 0 0 0 0 0 0 0 0 0 0 0 0 0 0 0 0 0 0 0 0 0 0 0 0 0 0 0 0 0 0 0 0 0 0 0 0 0 0 0 0 0 0 1 0 0 0 0 0 0 0 0 0 0 0 0 0 0 0 0 0 0 0 0 0 0 0 0 1 1 1 0 0 0 0 0 0 0 0 0 0 0 0 0 0 0 0 0 0 0 0 0 0 0 1 1 1 0 0 0 0 0 0 0 0 0 0 0 0 0 0 0 0 0 0 0 0 0 0 0 1 1 1 0 0 0 0 0 0 0 0 0 0 0 0 0 0 0 0 0 0 0 0 1 1 0 1 1 1 0 0 0 0 0 0 0 0 0 0 0 0 0 0 0 0 0 0 0 0 1 1 0 0 1 1 0 0 0 0 0 0 0 0 0 0 0 0 0 0 0 0 0 0 0 0 0 0 0 0 0 0 0 0 0 0 0 0 0 0 0 0 0 0 0 0 0 0 0 0 0 0 0 0 0 0 0 0 0 0 0 0 0 0 0 0 0 0 0 0 0 0 0 0 0 0 0 0 0 0 0 0 0 0 0 0 0 0 0 0 0 0 0 0 0 0 0 0 0 0 0 0 0 0 0 0 0 0 0 0 0 0 0 0 0 0 0 0 0 0 0 0 0 0 0 0 0 0 0 0 0 0 0 0 0 0 0 0 0 0 0 0 0 0 0 0 0 0 0 0 0 0 0 0 0 163 185 175 157 117 60 26 24 22 16 8 2 1 1 1 1 1 1 1 1 1 1 1 1 1 0 182 198 188 154 93 34 8 7 6 5 2 1 1 1 1 1 1 1 1 1 2 2 1 1 1 0 130 165 145 96 37 6 2 2 1 1 1 1 1 0 0 0 1 1 1 2 2 2 2 1 1 0 37 59 41 19 7 3 2 2 1 1 1 1 0 0 0 0 0 1 1 1 2 2 2 1 1 0 1 1 2 3 3 3 2 2 1 1 1 0 0 0 0 0 0 0 1 1 2 2 2 1 1 0 1 0 1 2 2 3 3 3 2 1 1 0 0 0 0 0 0 0 1 1 2 2 2 1 1 0 2 1 1 2 3 4 5 5 3 1 1 0 0 0 0 0 0 0 0 1 1 2 2 1 1 0 3 2 2 4 9 11 10 6 2 1 1 1 0 0 0 0 0 0 0 1 1 1 1 1 1 0 3 4 9 15 23 28 20 7 2 1 1 1 0 0 0 0 0 0 0 1 1 1 1 1 1 0 3 10 25 36 45 53 34 8 2 1 1 1 0 0 0 0 0 0 0 1 1 1 1 1 1 0 3 16 40 55 63 69 42 8 2 1 1 1 0 0 0 0 0 0 0 1 1 1 2 1 1 0 3 14 41 63 68 61 32 6 3 2 1 1 0 0 0 0 0 0 1 1 1 2 2 2 1 0 2 6 26 52 56 37 14 4 3 3 2 1 0 0 0 0 0 0 1 1 1 2 2 2 1 0 2 3 10 25 27 13 4 3 3 2 2 1 0 0 0 0 0 0 1 1 1 2 2 1 0 0 3 3 4 6 5 3 3 3 2 2 1 1 1 0 0 0 0 1 1 1 1 2 2 1 0 0 2 2 3 3 2 3 3 3 2 1 1 1 1 0 0 0 1 1 1 1 1 2 2 1 0 0 2 2 2 2 2 3 3 3 2 1 1 1 1 0 0 0 1 1 1 1 1 1 1 1 0 0 2 2 2 2 3 3 3 3 3 2 1 1 1 1 1 1 1 1 1 1 1 1 1 1 0 0 3 3 3 4 4 4 4 3 3 2 1 1 1 1 1 1 1 1 0 1 1 1 1 1 0 0 4 4 4 4 5 6 5 4 3 2 1 1 1 1 1 1 1 1 1 1 1 1 1 1 0 0 5 5 4 3 4 7 7 5 3 2 1 1 2 2 2 1 1 1 1 1 1 1 1 1 0 0 4 4 3 2 3 5 6 4 3 2 1 2 2 2 2 2 2 2 1 1 1 1 1 1 0 0 3 3 2 2 2 2 3 2 2 1 1 2 2 2 2 2 2 2 2 1 1 1 1 1 0 0 2 2 1 1 1 1 1 1 1 1 1 2 2 2 2 1 1 1 1 1 1 1 1 0 0 0 1 1 1 1 1 1 0 1 1 0 1 1 2 1 1 1 1 0 0 0 0 0 0 0 0 0 0 0 0 0 0 0 0 0 0 0 0 0 0 0 0 0 0 0 0 0 0 0 0 0 0 0 199 222 209 187 151 103 82 93 92 80 60 27 10 11 13 12 9 5 4 4 5 6 7 8 9 7 206 221 211 178 121 61 33 43 47 36 22 11 9 10 10 9 6 4 4 4 5 6 7 8 9 8 145 183 172 125 69 41 25 18 14 9 7 8 10 9 8 6 5 4 4 4 5 6 7 8 9 8 43 72 74 56 46 40 25 18 14 9 8 10 10 8 7 5 4 3 3 4 5 7 8 8 9 8 11 9 17 31 39 31 22 22 18 12 10 9 8 6 5 4 3 3 3 3 5 7 8 8 8 7 10 7 10 20 25 22 27 33 28 18 11 8 6 5 3 2 2 2 2 3 5 7 9 9 8 7 21 12 9 13 18 24 40 48 38 23 13 8 6 4 2 2 2 2 3 3 4 7 10 11 10 8 40 26 16 19 29 42 61 59 36 19 13 11 8 4 2 2 2 3 3 4 5 8 12 13 11 9 53 46 39 46 62 78 85 61 24 15 15 14 9 4 2 2 3 4 4 5 7 10 14 14 11 9 56 70 78 91 113 129 112 57 18 15 16 14 9 4 3 3 3 4 5 6 9 12 15 14 11 9 52 82 108 128 149 163 129 51 20 18 18 14 8 4 3 3 4 5 7 8 11 15 16 14 11 9 37 69 110 142 160 166 122 44 26 25 23 16 8 4 3 4 5 6 8 10 12 16 17 15 11 9 21 39 84 131 150 140 90 35 30 30 26 17 8 4 4 5 6 7 8 10 13 17 18 14 9 6 14 18 44 88 109 90 49 28 29 29 24 16 9 5 5 6 7 8 9 10 12 16 16 11 6 3 13 14 19 32 43 36 24 23 25 25 22 15 9 6 6 7 8 9 9 10 12 14 13 9 5 2 11 12 12 12 12 14 18 21 22 23 19 12 7 6 7 8 10 10 10 10 11 12 10 7 5 2 11 11 10 10 11 12 17 21 22 20 14 9 7 7 8 10 11 10 9 9 10 10 9 7 5 2 12 11 12 14 16 14 15 18 19 15 10 7 7 8 9 10 11 10 9 9 9 9 8 7 5 2 13 12 16 20 23 21 16 17 16 12 9 7 7 8 9 9 9 9 9 9 9 9 9 8 5 2 17 16 20 24 29 29 22 18 15 11 9 7 7 8 8 8 9 10 10 9 9 10 10 8 5 2 24 22 22 22 28 35 31 25 20 12 9 7 7 8 9 9 10 10 11 11 10 10 10 8 5 2 27 25 21 18 20 32 38 34 24 13 9 8 8 9 10 11 11 11 11 11 10 10 9 8 5 2 25 22 19 17 16 23 34 32 20 10 9 9 11 12 13 13 12 11 11 11 10 9 8 6 4 2 22 20 17 15 14 16 21 20 15 10 9 13 16 17 15 13 12 10 10 10 8 7 6 4 3 2 21 17 13 11 9 9 11 13 12 10 11 14 18 17 14 11 9 7 6 6 5 5 4 3 2 2 11 7 6 4 3 5 9 11 8 7 7 11 17 15 13 8 3 2 2 2 3 3 2 3 2 1 201 230 218 200 183 155 154 169 166 147 113 64 43 47 49 46 36 23 17 17 19 23 27 33 34 22 200 223 214 192 168 130 112 124 117 82 52 40 44 50 52 50 38 23 17 16 18 23 27 33 33 29 142 181 178 159 151 135 112 92 64 39 37 47 53 54 55 51 37 21 15 15 18 23 28 33 33 24 83 93 101 108 130 134 110 83 62 54 56 59 56 53 50 42 28 16 13 14 17 23 29 33 33 24 70 56 52 76 114 121 101 86 81 81 75 63 51 43 36 26 17 12 12 13 17 25 31 35 34 30 66 57 47 66 96 104 101 107 112 107 87 60 43 31 21 14 11 11 12 13 17 27 35 38 36 32 77 73 60 62 78 91 117 139 140 123 90 55 37 24 15 11 12 13 14 15 18 28 39 43 40 36 98 93 80 74 81 99 142 163 150 122 83 50 36 22 13 12 14 17 18 19 21 30 43 50 47 41 113 109 101 103 113 131 166 170 142 106 69 50 38 23 14 14 17 21 23 25 27 36 48 56 52 45 123 130 129 138 155 172 184 165 121 83 60 52 40 25 17 16 20 25 30 33 36 45 55 61 56 48 124 140 149 164 184 200 195 156 107 74 60 55 44 30 20 18 22 29 36 41 46 55 62 64 58 49 110 126 148 175 196 209 196 153 113 82 67 62 50 35 25 21 25 34 42 48 53 62 67 67 58 47 80 89 123 170 196 202 184 145 116 90 75 67 53 37 27 24 29 40 47 50 54 65 69 65 53 40 55 57 83 142 178 181 156 122 102 88 79 70 57 40 29 28 36 47 50 49 52 64 68 60 42 27 47 48 50 84 124 133 111 88 83 81 77 67 53 38 30 32 42 50 50 47 50 62 64 49 32 19 40 44 40 41 60 78 75 70 75 77 72 58 42 31 30 37 46 50 49 47 49 57 55 38 25 18 39 41 39 36 41 56 69 73 75 72 60 46 36 34 39 47 51 52 48 44 45 47 43 32 24 15 45 41 42 41 43 50 65 70 66 60 46 36 35 41 48 52 53 52 47 42 40 39 36 33 28 20 49 45 49 52 55 54 57 59 54 49 40 35 35 43 47 47 48 48 46 41 39 38 37 36 31 20 52 52 58 62 70 69 59 54 49 45 42 37 35 41 42 43 45 46 45 42 41 42 42 40 33 21 60 64 68 66 71 77 69 60 53 48 43 37 34 37 41 42 44 45 46 45 44 45 44 40 33 21 66 69 70 63 63 74 79 74 64 54 46 37 34 37 44 47 47 46 46 47 46 46 44 39 32 20 68 68 65 61 59 69 80 77 63 51 42 37 38 44 50 52 49 47 46 48 47 44 42 37 32 25 66 65 62 58 58 63 67 61 53 46 41 42 50 57 59 55 50 47 46 47 44 40 38 33 28 23 65 60 57 55 53 52 48 46 48 47 46 50 55 59 56 50 43 40 38 36 34 32 31 29 24 18 46 50 49 47 45 43 38 41 43 43 43 47 44 45 41 33 27 25 24 21 22 21 25 24 17 7 195 228 222 216 215 206 208 212 208 200 186 167 158 154 145 136 131 124 111 84 61 58 64 75 81 60 199 219 216 210 210 201 199 195 182 170 154 146 145 144 142 141 136 126 106 75 57 58 63 74 79 76 168 189 192 195 204 201 196 175 139 124 121 126 129 133 138 142 135 119 90 62 53 57 63 73 78 71 145 144 149 169 192 196 185 155 116 106 109 114 118 126 134 135 122 97 67 51 51 56 63 73 79 72 142 127 121 145 178 185 171 146 125 121 119 115 116 122 122 111 90 65 49 45 48 56 64 73 79 78 145 131 119 135 166 175 167 157 148 142 132 121 115 107 92 73 56 45 43 44 48 57 66 75 80 80 157 147 136 140 157 166 174 178 172 160 143 122 102 80 60 47 44 44 45 47 50 59 70 79 84 83 172 169 161 156 157 166 187 196 188 171 144 109 82 61 48 45 46 49 50 52 55 63 75 85 89 89 178 179 177 174 171 181 202 207 194 170 129 92 74 59 49 46 49 54 58 61 64 71 81 91 94 93 179 183 184 186 187 199 214 211 191 157 115 90 78 64 52 49 53 60 66 71 74 81 89 97 99 97 177 182 188 194 201 213 221 212 187 151 118 99 86 71 58 55 59 66 74 81 85 91 97 102 103 100 172 173 182 198 211 219 222 214 193 161 132 113 97 81 67 62 66 74 84 92 96 101 104 107 107 104 159 155 163 193 213 217 218 213 196 170 143 122 105 90 76 73 77 88 98 104 106 110 112 114 111 104 146 137 136 175 203 207 207 202 186 164 142 124 113 101 91 89 95 105 112 115 115 120 123 122 110 96 133 123 107 134 167 178 178 173 160 144 133 123 116 109 101 102 108 116 119 118 119 126 129 121 100 82 114 109 92 96 119 140 145 141 134 127 125 122 116 109 104 106 112 118 119 117 118 125 124 111 86 67 99 99 92 92 104 125 136 134 129 124 122 119 114 109 105 106 109 112 112 110 110 112 109 96 74 57 99 96 96 96 101 114 129 132 125 121 118 115 111 109 105 101 99 100 99 96 93 92 90 81 70 59 103 100 102 104 105 105 114 120 119 118 116 112 107 104 99 91 87 86 86 83 81 81 80 77 71 62 109 107 110 113 115 110 104 109 115 118 117 111 104 99 93 86 82 82 81 78 80 82 81 81 77 69 115 118 121 118 118 113 103 105 114 120 118 112 103 97 92 86 83 82 81 81 82 85 86 85 81 72 117 123 126 119 115 111 105 109 118 124 120 111 102 96 93 90 87 86 84 84 85 88 90 88 83 72 118 124 125 115 111 110 107 111 116 120 115 105 98 94 95 94 91 89 87 88 88 90 92 90 83 75 113 120 120 111 107 108 104 104 106 109 104 96 95 97 99 99 96 94 92 90 89 90 92 88 79 70 109 111 112 107 104 101 94 92 95 98 95 91 92 96 97 97 94 92 90 87 86 86 86 81 72 62 86 106 107 103 101 96 87 86 89 91 89 89 82 86 85 85 84 82 81 78 78 77 79 74 62 39 135 171 167 163 166 165 168 167 162 163 158 150 143 136 125 116 115 114 102 75 49 43 45 54 61 47 146 162 160 156 161 162 166 155 143 145 139 131 126 122 118 117 119 116 98 65 45 42 44 52 59 60 124 139 143 147 155 158 160 138 107 105 102 101 102 105 111 117 118 108 82 52 41 41 44 52 59 59 107 109 117 133 148 149 144 116 80 72 74 78 86 98 109 114 108 88 59 41 39 40 43 52 59 59 105 97 97 116 136 138 127 103 77 68 69 75 87 98 103 97 80 57 41 36 37 39 42 51 58 60 112 100 94 106 126 131 124 106 84 74 77 85 91 90 80 64 48 37 35 35 36 39 43 50 58 60 126 111 104 110 122 128 126 116 98 87 91 91 81 65 50 39 36 35 35 36 37 40 44 51 59 62 140 132 126 123 123 128 133 128 115 106 98 81 60 46 38 36 36 36 37 39 41 44 47 53 60 64 144 145 142 137 130 136 146 142 132 118 92 63 49 43 38 36 37 39 41 44 46 48 51 55 62 65 139 144 146 144 139 149 161 156 142 119 83 58 51 46 40 38 40 42 45 48 51 53 55 58 64 67 133 138 145 149 150 160 170 165 147 118 87 66 57 50 43 41 43 46 50 53 56 57 59 61 66 70 129 130 138 150 160 165 171 170 153 129 103 79 65 56 49 47 49 51 57 61 63 63 63 65 71 76 126 122 123 143 161 159 165 170 158 138 112 86 72 65 59 57 58 61 69 74 74 72 72 75 79 80 122 113 103 125 145 143 153 164 152 130 107 86 78 76 73 73 74 77 83 88 87 85 85 88 85 80 112 101 82 94 110 115 131 140 126 107 95 86 85 87 85 84 85 88 92 93 93 93 94 94 82 69 94 86 70 72 84 97 109 109 98 88 87 90 92 93 89 86 87 90 92 92 92 94 94 90 71 54 78 76 69 71 81 94 101 98 90 86 89 95 94 91 84 80 80 83 85 85 85 86 85 77 59 46 73 72 72 73 79 87 95 95 91 89 93 97 92 86 76 69 66 68 71 71 69 69 68 61 50 44 75 74 76 78 78 78 83 89 92 93 95 94 87 78 69 60 55 55 56 56 56 57 56 54 50 47 81 79 80 82 81 74 72 81 90 95 95 91 84 75 67 58 53 51 51 51 53 55 55 54 54 53 86 85 86 85 84 74 67 75 89 96 95 91 83 75 67 59 54 53 52 52 54 56 57 58 59 57 86 90 91 85 82 74 66 75 88 96 95 91 83 74 66 60 57 56 54 54 55 59 62 64 61 58 84 90 92 83 78 73 67 74 85 93 92 86 77 69 65 62 60 60 58 57 57 62 65 66 61 57 78 86 88 78 73 71 66 71 76 83 81 73 67 63 64 65 66 65 63 60 60 64 67 66 59 53 74 79 80 74 70 68 65 65 66 70 68 62 61 62 64 67 68 67 65 63 63 64 65 62 55 48 57 75 75 71 69 68 64 63 61 63 62 59 60 62 63 65 66 65 64 63 63 63 62 57 50 33 0 0 0 0 0 0 0 0 0 0 0 0 0 0 0 0 0 0 0 0 0 0 0 0 0 0 0 0 0 0 0 0 0 0 0 0 0 0 0 0 0 0 0 0 0 0 0 0 0 0 0 0 0 0 0 0 0 0 0 0 0 0 0 0 0 0 0 0 0 0 0 0 0 0 0 0 0 0 0 0 0 0 0 0 0 0 0 0 0 0 0 0 0 0 0 0 0 0 0 0 0 0 0 0 0 0 0 0 0 0 0 0 0 0 0 0 0 0 0 0 0 0 0 0 0 0 0 0 0 0 0 0 0 0 0 0 0 0 0 0 0 0 0 0 0 0 0 0 0 0 0 0 0 0 0 0 0 0 0 0 0 0 0 0 0 0 0 0 0 0 0 0 0 0 0 0 0 0 0 0 0 0 0 0 0 0 0 0 0 0 0 0 0 0 0 0 0 0 0 0 0 0 0 0 0 0 0 0 0 0 0 0 0 0 0 0 0 0 0 0 0 0 0 0 0 0 0 0 0 0 0 0 0 0 0 0 0 0 0 0 0 0 0 0 0 0 0 0 0 0 0 0 0 0 0 0 0 0 0 0 0 0 0 0 0 0 0 0 0 0 0 0 0 0 0 0 0 0 0 0 0 0 0 0 0 0 0 0 0 0 0 0 0 0 0 0 0 0 0 0 0 0 0 0 0 0 0 0 0 0 0 0 0 0 0 0 0 0 0 0 0 0 0 0 0 0 0 0 0 0 0 0 0 0 0 0 0 0 0 0 0 0 0 0 0 0 0 0 0 0 0 0 0 0 0 0 0 0 0 0 0 0 0 0 0 0 0 0 0 0 0 0 0 0 0 0 0 0 0 0 0 0 0 0 0 0 0 0 0 0 0 0 0 0 0 0 0 0 0 0 0 0 0 0 0 0 0 0 0 0 0 0 0 0 0 0 0 0 0 0 0 0 0 0 0 0 0 0 0 0 0 0 0 0 0 0 0 0 0 0 0 0 0 0 0 0 0 0 0 0 0 0 0 0 0 0 0 0 0 0 0 0 0 0 0 0 0 0 0 0 0 0 0 0 0 0 0 0 0 0 0 0 0 0 0 0 0 0 0 0 0 0 0 0 0 0 0 0 0 0 0 0 0 0 0 0 0 0 0 0 0 0 0 0 0 0 0 0 0 0 0 0 0 0 0 0 0 0 0 0 0 0 0 0 0 0 0 0 0 0 0 0 0 0 0 0 0 0 0 0 0 0 0 0 0 0 0 0 0 0 0 0 0 0 0 0 0 0 0 0 0 0 0 0 0 0 0 0 0 0 0 0 0 0 0 0 0 0 0 0 0 0 0 0 0 0 0 0 0 0 0 0 0 0 0 0 0 0 0 0 0 0 0 0 0 0 0 0 0 0 0 0 0 0 0 0 0 0 0 0 0 0 0 0 0 0 0 0 0 0 0 0 0 0 0 0 0 0 0 0 0 0 0 0 0 0 0 0 0 0 0 0 0 0 0 0 0 0 0 0 0 0 0 0 0 0 
</DataArray>
<DataArray Name="HRRPUV" NumberOfComponents="1" type="UInt8" format="ascii">