<?xml version="1.0"?>
<VTKFile type="PolyData" version="1.0" byte_order="LittleEndian" header_type="UInt64">
<PolyData>
<Piece NumberOfPoints="1412" NumberOfVerts="0" NumberOfLines="0" NumberOfPolys="700">
    <Points>
        <DataArray type="Float32" NumberOfComponents="3" format="ascii">
        18.0 10.0 1.8 18.0 10.0 1.8 18.0 10.0 1.8 18.0 10.0 1.8 18.0 10.2 1.8 18.0 10.2 1.8 18.0 10.0 1.8 18.0 10.0 1.8 18.0 10.0 1.8 18.1 10.0 1.6 18.3 10.0 1.8 18.0 10.0 1.8 18.0 10.2 1.8 18.1 10.2 1.6 18.1 10.0 1.6 18.3 10.0 1.8 18.1 10.0 1.6 18.1 10.2 1.6 18.3 10.2 1.8 18.0 10.2 1.8 18.0 10.8 1.8 18.0 10.8 1.8 18.0 10.2 1.8 18.0 10.2 1.8 18.0 10.8 1.8 18.1 10.8 1.6 18.1 10.2 1.6 18.3 10.2 1.8 18.1 10.2 1.6 18.1 10.8 1.6 18.3 10.8 1.8 18.0 10.8 1.8 18.0 11.4 1.8 18.0 11.4 1.8 18.0 10.8 1.8 18.0 10.8 1.8 18.0 11.4 1.8 18.1 11.4 1.6 18.1 10.8 1.6 18.3 10.8 1.8 18.1 10.8 1.6 18.1 11.4 1.6 18.3 11.4 1.8 18.0 11.4 1.8 18.0 12.0 1.8 18.0 12.0 1.8 18.0 11.4 1.8 18.0 11.4 1.8 18.0 12.0 1.8 18.1 12.0 1.6 18.1 11.4 1.6 18.3 11.4 1.8 18.1 11.4 1.6 18.1 12.0 1.6 18.3 12.0 1.8 18.0 12.0 1.8 18.0 12.6 1.8 18.0 12.6 1.8 18.0 12.0 1.8 18.0 12.0 1.8 18.0 12.6 1.8 18.1 12.6 1.6 18.1 12.0 1.6 18.3 12.0 1.8 18.1 12.0 1.6 18.1 12.6 1.6 18.3 12.6 1.8 18.0 12.6 1.8 18.0 13.2 1.8 18.0 13.2 1.8 18.0 12.6 1.8 18.0 12.6 1.8 18.0 13.2 1.8 18.1 13.2 1.6 18.1 12.6 1.6 18.3 12.6 1.8 18.1 12.6 1.6 18.1 13.2 1.6 18.3 13.2 1.8 18.3 13.1 1.8 18.3 13.1 1.8 18.3 13.2 1.8 18.3 13.2 1.8 18.0 13.2 1.8 18.0 13.8 1.8 18.0 13.8 1.8 18.0 13.2 1.8 18.0 13.8 1.8 18.0 13.8 1.8 18.0 13.8 1.8 18.0 13.8 1.8 18.0 13.2 1.8 18.0 13.8 1.8 18.0 13.8 1.8 18.1 13.8 1.6 18.1 13.2 1.6 18.0 13.8 1.8 18.0 13.8 1.8 18.0 13.8 1.8 18.3 13.2 1.8 18.1 13.2 1.6 18.1 13.8 1.6 18.2 13.8 1.7 18.3 13.2 1.8 18.3 13.2 1.8 18.2 13.8 1.7 18.3 13.8 1.8 18.0 13.8 1.8 18.0 14.0 1.8 18.0 14.0 1.8 18.0 13.8 1.8 18.0 14.0 1.8 18.0 14.0 1.8 18.0 14.0 1.8 18.0 13.8 1.8 18.0 14.0 1.8 18.1 14.0 1.6 18.0 13.8 1.8 18.0 14.0 1.8 18.0 14.0 1.8 18.3 14.0 1.8 18.1 14.0 1.6 18.1 13.8 1.6 18.0 13.8 1.8 18.1 14.0 1.6 18.2 13.8 1.7 18.1 13.8 1.6 18.1 14.0 1.6 18.3 13.8 1.8 18.2 13.8 1.7 18.1 14.0 1.6 18.3 14.0 1.8 17.4 10.0 2.4 17.4 10.0 2.4 17.4 10.0 2.4 17.4 10.0 2.4 17.4 10.2 2.4 17.4 10.2 2.4 17.4 10.0 2.4 17.4 10.0 2.4 17.4 10.0 2.4 18.0 10.0 1.8 18.0 10.0 1.8 18.0 10.0 2.4 17.4 10.0 2.4 17.4 10.2 2.4 18.0 10.2 1.8 18.0 10.0 1.8 18.0 10.0 2.4 18.0 10.0 1.8 18.3 10.0 1.8 18.6 10.0 2.1 18.6 10.0 2.4 18.3 10.0 1.8 18.3 10.2 1.8 18.6 10.2 2.1 18.6 10.0 2.1 18.6 10.0 2.4 18.6 10.0 2.1 18.9 10.0 2.4 18.8 10.0 2.4 18.6 10.0 2.1 18.6 10.2 2.1 18.8 10.2 2.3 18.9 10.0 2.4 18.8 10.0 2.4 18.9 10.0 2.4 18.9 10.2 2.4 18.8 10.2 2.4 18.9 10.0 2.4 18.8 10.2 2.3 18.9 10.2 2.4 18.9 10.0 2.4 18.8 10.0 2.4 18.8 10.0 2.4 17.4 10.2 2.4 17.4 10.8 2.4 17.4 10.8 2.4 17.4 10.2 2.4 17.4 10.2 2.4 17.4 10.8 2.4 18.0 10.8 1.8 18.0 10.2 1.8 18.3 10.2 1.8 18.3 10.8 1.8 18.6 10.8 2.1 18.6 10.2 2.1 18.6 10.2 2.1 18.6 10.8 2.1 18.7 10.8 2.2 18.8 10.2 2.3 18.8 10.2 2.4 18.9 10.2 2.4 18.9 10.8 2.4 18.8 10.8 2.4 18.9 10.2 2.4 18.8 10.2 2.3 18.7 10.8 2.2 18.9 10.8 2.4 17.4 10.8 2.4 17.4 11.4 2.4 17.4 11.4 2.4 17.4 10.8 2.4 17.4 10.8 2.4 17.4 11.4 2.4 18.0 11.4 1.8 18.0 10.8 1.8 18.3 10.8 1.8 18.3 11.4 1.8 18.6 11.4 2.1 18.6 10.8 2.1 18.6 10.8 2.1 18.6 11.4 2.1 18.6 11.4 2.1 18.7 10.8 2.2 18.8 10.8 2.4 18.9 10.8 2.4 18.9 11.4 2.4 18.8 11.4 2.4 18.9 10.8 2.4 18.7 10.8 2.2 18.6 11.4 2.1 18.9 11.4 2.4 17.4 11.4 2.4 17.4 12.0 2.4 17.4 12.0 2.4 17.4 11.4 2.4 17.4 11.4 2.4 17.4 12.0 2.4 18.0 12.0 1.8 18.0 11.4 1.8 18.3 11.4 1.8 18.3 12.0 1.8 18.5 12.0 2.0 18.6 11.4 2.1 18.6 11.4 2.1 18.5 12.0 2.0 18.6 12.0 2.1 18.6 11.4 2.1 18.6 11.4 2.1 18.6 11.4 2.1 18.6 11.4 2.1 18.6 11.4 2.1 18.6 12.0 2.1 18.9 12.0 2.4 18.9 11.4 2.4 18.6 11.4 2.1 18.8 11.4 2.4 18.9 11.4 2.4 18.9 12.0 2.4 18.8 12.0 2.4 17.4 12.0 2.4 17.4 12.6 2.4 17.4 12.6 2.4 17.4 12.0 2.4 17.4 12.0 2.4 17.4 12.6 2.4 18.0 12.6 1.8 18.0 12.0 1.8 18.5 12.0 2.0 18.4 12.6 1.9 18.6 12.6 2.1 18.6 12.0 2.1 18.5 12.0 2.0 18.3 12.0 1.8 18.3 12.6 1.8 18.4 12.6 1.9 18.6 12.0 2.1 18.6 12.6 2.1 18.9 12.6 2.4 18.9 12.0 2.4 18.8 12.0 2.4 18.9 12.0 2.4 18.9 12.6 2.4 18.8 12.6 2.4 17.4 12.6 2.4 17.4 12.9 2.4 17.4 12.9 2.4 17.4 12.6 2.4 17.4 12.9 2.4 17.4 13.2 2.4 17.4 13.2 2.4 17.4 12.9 2.4 17.4 12.6 2.4 17.4 12.9 2.4 17.6 13.2 2.2 18.0 13.2 1.8 18.0 12.6 1.8 17.4 12.9 2.4 17.4 13.2 2.4 17.6 13.2 2.2 18.4 12.6 1.9 18.3 13.1 1.8 18.3 13.2 1.8 18.6 13.2 2.1 18.6 12.6 2.1 18.4 12.6 1.9 18.3 12.6 1.8 18.3 13.1 1.8 18.6 12.6 2.1 18.6 13.2 2.1 18.9 13.2 2.4 18.9 12.6 2.4 18.8 12.6 2.4 18.9 12.6 2.4 18.9 13.2 2.4 18.8 13.2 2.4 17.4 13.2 2.4 17.4 13.8 2.4 17.4 13.8 2.4 17.4 13.2 2.4 17.4 13.2 2.4 17.4 13.8 2.4 18.0 13.8 1.8 18.0 13.8 1.8 17.6 13.2 2.2 18.0 13.2 1.8 17.6 13.2 2.2 18.0 13.8 1.8 18.3 13.2 1.8 18.3 13.8 1.8 18.6 13.8 2.1 18.6 13.2 2.1 18.6 13.2 2.1 18.6 13.8 2.1 18.9 13.8 2.4 18.9 13.2 2.4 18.8 13.2 2.4 18.9 13.2 2.4 18.9 13.8 2.4 18.8 13.8 2.4 17.4 13.8 2.4 17.4 14.0 2.4 17.4 14.0 2.4 17.4 13.8 2.4 17.4 14.0 2.4 17.4 14.0 2.4 17.4 14.0 2.4 17.4 13.8 2.4 17.4 14.0 2.4 18.0 14.0 1.8 18.0 13.8 1.8 17.4 14.0 2.4 17.4 14.0 2.4 18.0 14.0 2.4 18.0 14.0 1.8 18.0 14.0 1.8 18.0 14.0 1.8 18.0 14.0 2.4 18.6 14.0 2.4 18.6 14.0 2.1 18.3 14.0 1.8 18.3 13.8 1.8 18.3 14.0 1.8 18.6 14.0 2.1 18.6 13.8 2.1 18.6 13.8 2.1 18.6 14.0 2.1 18.9 14.0 2.4 18.9 13.8 2.4 18.6 14.0 2.1 18.6 14.0 2.4 18.8 14.0 2.4 18.9 14.0 2.4 18.8 13.8 2.4 18.9 13.8 2.4 18.9 14.0 2.4 18.8 13.9 2.4 18.9 14.0 2.4 18.8 14.0 2.4 18.8 13.9 2.4 18.9 14.0 2.4 18.8 14.0 2.4 18.8 14.0 2.4 16.8 10.0 3.0 16.8 10.0 3.0 16.8 10.0 3.0 16.8 10.0 3.0 16.8 10.2 3.0 16.8 10.2 3.0 16.8 10.0 3.0 16.8 10.0 3.0 16.8 10.0 3.0 17.4 10.0 2.4 17.4 10.0 2.4 17.4 10.0 3.0 16.8 10.0 3.0 16.8 10.2 3.0 17.4 10.2 2.4 17.4 10.0 2.4 17.4 10.0 3.0 17.4 10.0 2.4 18.0 10.0 2.4 18.0 10.0 2.9 17.8 10.0 3.0 17.8 10.0 3.0 18.0 10.0 2.9 18.0 10.0 3.0 18.0 10.0 2.9 18.0 10.0 2.4 18.6 10.0 2.4 18.6 10.0 2.5 18.0 10.0 3.0 18.0 10.0 2.9 18.6 10.0 2.5 18.6 10.0 2.6 18.2 10.0 3.0 18.2 10.2 3.0 18.2 10.0 3.0 18.6 10.0 2.6 18.6 10.2 2.6 18.6 10.0 2.5 18.6 10.0 2.4 18.8 10.0 2.4 18.6 10.0 2.6 18.6 10.0 2.5 18.8 10.0 2.4 18.8 10.0 2.4 18.6 10.2 2.6 18.6 10.0 2.6 18.8 10.0 2.4 18.8 10.2 2.4 16.8 10.2 3.0 16.8 10.8 3.0 16.8 10.8 3.0 16.8 10.2 3.0 16.8 10.2 3.0 16.8 10.8 3.0 17.4 10.8 2.4 17.4 10.2 2.4 18.2 10.8 3.0 18.2 10.2 3.0 18.6 10.2 2.6 18.6 10.8 2.6 18.6 10.8 2.6 18.6 10.2 2.6 18.8 10.2 2.4 18.8 10.8 2.4 16.8 10.8 3.0 16.8 11.4 3.0 16.8 11.4 3.0 16.8 10.8 3.0 16.8 10.8 3.0 16.8 11.4 3.0 17.4 11.4 2.4 17.4 10.8 2.4 18.2 11.4 3.0 18.2 10.8 3.0 18.6 10.8 2.6 18.6 11.4 2.6 18.6 11.4 2.6 18.6 10.8 2.6 18.8 10.8 2.4 18.8 11.4 2.4 16.8 11.4 3.0 16.8 12.0 3.0 16.8 12.0 3.0 16.8 11.4 3.0 16.8 11.4 3.0 16.8 12.0 3.0 17.4 12.0 2.4 17.4 11.4 2.4 18.2 12.0 3.0 18.2 11.4 3.0 18.6 11.4 2.6 18.6 12.0 2.6 18.6 12.0 2.6 18.6 11.4 2.6 18.8 11.4 2.4 18.8 12.0 2.4 16.8 12.0 3.0 16.8 12.1 3.0 16.8 12.1 3.0 16.8 12.0 3.0 16.8 12.1 3.0 16.8 12.6 3.0 16.8 12.6 3.0 16.8 12.1 3.0 16.8 12.0 3.0 16.8 12.1 3.0 17.2 12.6 2.6 17.4 12.6 2.4 17.4 12.0 2.4 16.8 12.1 3.0 16.8 12.6 3.0 17.2 12.6 2.6 18.2 12.6 3.0 18.2 12.0 3.0 18.6 12.0 2.6 18.6 12.6 2.6 18.6 12.6 2.6 18.6 12.0 2.6 18.8 12.0 2.4 18.8 12.6 2.4 16.8 12.6 3.0 16.8 13.2 3.0 16.8 13.2 3.0 16.8 12.6 3.0 16.8 12.6 3.0 16.8 13.2 3.0 17.4 13.2 2.4 17.4 12.9 2.4 17.2 12.6 2.6 17.4 12.6 2.4 17.2 12.6 2.6 17.4 12.9 2.4 18.3 13.2 2.9 18.2 13.1 3.0 18.2 12.6 3.0 18.6 12.6 2.6 18.6 13.2 2.6 18.2 13.1 3.0 18.3 13.2 2.9 18.2 13.2 3.0 18.6 13.2 2.6 18.6 12.6 2.6 18.8 12.6 2.4 18.8 13.2 2.4 16.8 13.2 3.0 16.8 13.8 3.0 16.8 13.8 3.0 16.8 13.2 3.0 16.8 13.2 3.0 16.8 13.8 3.0 17.4 13.8 2.4 17.4 13.2 2.4 18.3 13.2 2.9 18.6 13.2 2.6 18.6 13.6 2.6 18.2 13.8 3.0 18.2 13.2 3.0 18.3 13.2 2.9 18.6 13.6 2.6 18.6 13.8 2.6 18.6 13.6 2.6 18.6 13.2 2.6 18.8 13.2 2.4 18.8 13.8 2.4 18.7 13.8 2.5 18.6 13.8 2.6 18.6 13.6 2.6 18.7 13.8 2.5 16.8 13.8 3.0 16.8 14.0 3.0 16.8 14.0 3.0 16.8 13.8 3.0 16.8 14.0 3.0 16.8 14.0 3.0 16.8 14.0 3.0 16.8 13.8 3.0 16.8 14.0 3.0 17.4 14.0 2.4 17.4 13.8 2.4 16.8 14.0 3.0 16.8 14.0 3.0 17.4 14.0 3.0 17.4 14.0 2.4 17.4 14.0 2.4 17.4 14.0 2.4 17.4 14.0 3.0 17.8 14.0 3.0 18.0 14.0 2.9 18.0 14.0 2.4 17.8 14.0 3.0 18.0 14.0 3.0 18.0 14.0 2.9 18.0 14.0 2.4 18.0 14.0 2.9 18.6 14.0 2.5 18.6 14.0 2.4 18.0 14.0 2.9 18.0 14.0 3.0 18.2 14.0 3.0 18.6 14.0 2.6 18.6 14.0 2.5 18.2 14.0 3.0 18.2 13.8 3.0 18.6 13.8 2.6 18.6 14.0 2.6 18.6 14.0 2.4 18.6 14.0 2.5 18.8 14.0 2.4 18.6 14.0 2.6 18.6 13.8 2.6 18.7 13.8 2.5 18.8 13.9 2.4 18.8 14.0 2.4 18.6 14.0 2.5 18.6 14.0 2.6 18.8 14.0 2.4 18.8 14.0 2.4 18.7 13.8 2.5 18.8 13.8 2.4 18.8 13.9 2.4 16.2 10.0 3.6 16.2 10.0 3.6 16.2 10.0 3.6 16.2 10.0 3.6 16.2 10.2 3.6 16.2 10.2 3.6 16.2 10.0 3.6 16.2 10.0 3.6 16.2 10.0 3.6 16.8 10.0 3.0 16.8 10.0 3.0 16.8 10.0 3.6 16.8 10.0 3.6 16.2 10.0 3.6 16.2 10.2 3.6 16.8 10.2 3.0 16.8 10.0 3.0 16.8 10.0 3.6 16.8 10.0 3.6 16.8 10.0 3.6 16.8 10.0 3.6 16.8 10.0 3.0 17.4 10.0 3.0 17.4 10.0 3.2 16.8 10.0 3.6 16.8 10.0 3.6 17.4 10.0 3.2 17.4 10.0 3.6 17.4 10.0 3.2 17.4 10.0 3.0 17.8 10.0 3.0 17.4 10.0 3.6 17.4 10.0 3.2 17.8 10.0 3.0 18.0 10.0 3.0 18.0 10.0 3.2 17.6 10.0 3.6 17.6 10.2 3.6 17.6 10.0 3.6 18.0 10.0 3.2 18.0 10.2 3.2 18.0 10.0 3.2 18.0 10.0 3.0 18.2 10.0 3.0 18.0 10.2 3.2 18.0 10.0 3.2 18.2 10.0 3.0 18.2 10.2 3.0 16.2 10.2 3.6 16.2 10.8 3.6 16.2 10.8 3.6 16.2 10.2 3.6 16.2 10.2 3.6 16.2 10.8 3.6 16.8 10.8 3.0 16.8 10.2 3.0 17.6 10.8 3.6 17.6 10.2 3.6 18.0 10.2 3.2 18.0 10.8 3.2 18.0 10.8 3.2 18.0 10.2 3.2 18.2 10.2 3.0 18.2 10.8 3.0 16.2 10.8 3.6 16.2 11.2 3.6 16.2 11.2 3.6 16.2 10.8 3.6 16.2 11.2 3.6 16.2 11.4 3.6 16.2 11.4 3.6 16.2 11.2 3.6 16.2 10.8 3.6 16.2 11.2 3.6 16.3 11.4 3.5 16.8 11.4 3.0 16.8 10.8 3.0 16.2 11.2 3.6 16.2 11.4 3.6 16.3 11.4 3.5 17.6 11.4 3.6 17.6 10.8 3.6 18.0 10.8 3.2 18.0 11.4 3.2 18.0 11.4 3.2 18.0 10.8 3.2 18.2 10.8 3.0 18.2 11.4 3.0 16.2 11.4 3.6 16.2 12.0 3.6 16.2 12.0 3.6 16.2 11.4 3.6 16.2 11.4 3.6 16.2 12.0 3.6 16.7 12.0 3.1 16.3 11.4 3.5 16.8 11.4 3.0 16.3 11.4 3.5 16.7 1
[...]
    <CellData>
        <DataArray type="Float32" Name="water drops AMPUA" format="ascii">
            0.1 0.0 0.0 0.0 0.0 0.0 0.0 0.0 0.0 0.0 0.0 0.0 0.0 0.0 0.0 0.0 0.0 0.0 0.0 0.0 0.0 0.0 0.0 0.0 0.0 0.0 0.0 0.0 0.0 0.0 0.0 0.0 0.0 0.0 0.0 0.0 0.0 0.0 0.0 0.0 0.0 0.0 0.0 0.0 0.0 0.0 0.0 0.0 0.0 0.0 0.0 0.0 0.0 0.0 0.0 0.0 0.0 0.0 0.0 0.0 0.0 0.0 0.0 0.0 12.5 0.0 0.0 0.0 0.0 0.0 0.0 0.0 0.0 0.0 0.0 0.0 0.0 0.0 0.0 0.0 0.0 0.0 0.0 0.0 0.0 0.0 0.0 0.0 0.0 0.0 0.0 0.0 0.0 0.0 0.0 0.0 0.0 0.0 0.0 0.0 0.0 0.0 0.0 0.0 0.0 0.0 0.0 0.0 0.0 0.0 0.0 0.0 0.0 0.0 0.0 0.0 0.0 0.0 0.0 0.0 0.0 0.0 0.0 0.0 0.0 0.0 0.0 0.0 0.0 0.0 0.0 0.0 0.0 0.0 0.0 0.0 0.0 0.0 0.0 0.0 0.0 0.0 0.0 0.0 0.0 0.0 0.0 0.0 0.0 0.0 0.0 0.0 0.0 0.0 0.0 0.0 0.0 0.0 0.0 0.0 0.0 0.0 0.0 0.0 0.0 0.0 0.0 0.0 0.0 0.0 0.0 0.0 0.0 0.0 0.0 0.0 0.0 0.0 0.0 0.0 0.0 0.0 0.0 0.0 23.4 0.0 0.0 0.0 0.0 0.0 0.0 0.0 0.0 0.0 0.0 0.0 0.0 0.0 0.0 0.0 0.0 0.0 0.0 0.0 0.0 0.0 0.0 0.0 0.0 0.0 0.0 0.0 0.0 0.0 0.0 0.0 0.0 0.0 0.0 0.0 0.0 0.0 0.0 0.0 0.0 0.0 0.0 0.0 0.0 0.0 0.0 0.0 0.0 0.0 0.0 0.0 0.0 0.0 0.0 0.0 0.0 0.0 0.0 0.0 0.0 0.0 0.0 0.0 0.0 0.0 0.0 0.0 0.0 0.0 0.0 0.0 0.0 0.0 0.0 0.0 0.0 0.0 0.0 0.0 0.0 0.0 0.0 0.0 0.0 0.0 0.0 0.0 0.0 0.0 0.0 0.0 0.0 0.0 0.0 0.0 0.0 0.0 0.0 0.0 0.0 0.0 0.0 0.0 0.0 0.0 0.0 0.0 0.0 0.0 1.1 0.0 0.0 0.0 0.0 0.0 0.0 0.0 0.0 0.1 0.0 0.0 0.0 0.0 0.0 0.0 0.0 0.0 0.0 0.0 0.0 0.0 0.0 0.0 0.0 0.0 0.0 0.0 0.0 0.0 0.0 0.0 0.0 0.0 0.0 0.0 0.0 0.0 0.0 0.0 0.0 0.0 0.0 0.0 0.0 0.0 0.0 0.0 0.0 0.0 0.0 0.0 0.0 0.0 0.0 0.0 0.0 0.0 0.0 0.0 0.0 0.0 0.0 0.0 0.0 0.0 0.0 0.0 0.0 0.0 0.0 0.0 0.0 0.0 0.0 0.0 0.0 0.0 0.0 0.0 0.0 0.0 0.0 0.0 0.0 0.0 0.0 0.0 0.0 0.0 0.0 0.0 0.0 0.0 0.0 0.0 0.0 0.0 0.0 0.0 0.0 0.0 0.0 0.0 0.0 0.0 0.0 0.0 0.0 0.0 2.4 0.0 0.0 0.0 0.0 0.0 0.0 0.0 0.0 0.0 0.0 0.0 0.0 0.0 0.0 0.0 0.0 0.0 0.0 0.0 0.0 0.0 0.0 0.0 0.0 0.0 0.0 0.0 0.0 0.0 0.0 0.0 0.0 0.0 0.0 0.0 0.0 0.0 0.0 0.0 0.0 0.0 0.0 8.3 0.0 0.0 0.0 0.0 0.0 0.0 0.0 0.0 0.0 0.0 0.0 0.0 0.0 0.0 0.0 0.0 0.0 0.0 0.0 0.0 0.0 0.0 0.0 0.0 0.0 0.0 0.0 0.0 0.0 0.0 0.0 0.0 0.0 0.0 0.0 0.0 0.0 0.0 0.0 0.0 0.0 0.0 0.0 0.0 0.0 0.0 0.0 0.0 0.0 0.0 0.0 0.0 0.0 0.0 0.0 0.0 0.0 0.0 0.0 0.0 0.0 0.0 0.0 0.0 0.0 0.0 0.0 0.0 0.0 0.0 0.0 0.0 0.0 0.0 0.0 0.0 0.0 0.0 0.0 0.0 0.0 0.0 0.0 0.0 0.0 0.0 0.0 0.0 0.0 0.0 0.0 0.0 0.0 0.0 0.0 0.0 0.0 0.0 0.0 0.0 0.0 0.0 0.0 0.0 0.0 0.0 0.0 0.0 0.0 0.0 0.0 0.0 0.0 0.0 0.0 0.0 0.0 0.0 0.0 0.0 0.0 0.0 0.0 0.0 0.0 0.0 0.0 0.0 0.0 0.0 0.0 0.0 0.0 0.0 0.0 0.0 0.0 0.0 0.0 0.0 0.0 0.0 0.0 0.0 0.0 0.0 0.0 0.0 0.0 0.0 0.0 0.0 0.0 0.0 0.0 0.0 0.0 0.0 0.0 0.0 0.0 0.0 0.0 0.0 0.0 0.0 0.0 0.0 0.0 0.0 0.0 0.0 0.0 0.0 0.0 0.0 0.0 0.0 0.0 0.0 0.0 0.0 0.0 0.0 0.0 0.0 0.0 0.0 0.0 0.0 0.0 0.0 0.0 0.0 0.0 0.3 0.0 0.0 0.0 0.0 0.0 0.0 0.0 0.0 0.0 0.0 0.0 0.0 0.0 0.0 0.0 0.0 0.0 0.0 0.0 0.0 0.0 0.0 0.0 0.0 0.0 0.0 0.0 0.0 0.0 0.1 0.0 0.0 0.0 0.0 0.0 0.0 0.0 0.0 0.0 0.0 0.0 0.0 0.0 0.0 0.0 0.0 0.0 0.0 0.0 0.0 0.0 0.0 0.0 0.0 0.0 0.0 
         </DataArray>
        <DataArray type="Float32" Name="WALL TEMPERATURE" format="ascii">
            23.8 106.8 106.8 39.4 39.4 193.8 193.8 172.4 172.4 160.9 160.9 287.6 287.6 259.4 259.4 257.5 257.5 429.2 429.2 403.2 403.2 414.0 414.0 640.3 640.3 662.6 662.6 616.5 616.5 832.3 832.3 899.6 899.6 781.6 781.6 921.5 921.5 973.5 973.5 973.5 973.5 674.8 674.8 674.8 674.8 868.5 868.5 868.5 847.3 926.6 926.6 926.6 926.6 412.9 412.9 141.4 715.4 715.4 819.9 819.9 731.0 836.4 836.4 836.4 20.3 81.0 81.0 28.6 28.6 28.6 95.0 95.0 34.6 34.6 34.6 156.0 156.0 36.9 36.9 138.3 138.3 196.1 196.1 138.3 36.9 117.0 117.0 140.3 140.3 240.0 240.0 217.6 217.6 293.5 293.5 217.6 217.6 192.3 192.3 228.4 228.4 387.1 387.1 366.7 366.7 446.6 446.6 366.7 366.7 342.1 342.1 385.6 385.6 635.8 635.8 635.8 635.8 601.2 601.2 601.2 601.2 658.3 658.3 521.8 521.8 585.8 585.8 853.5 853.5 853.5 853.5 796.6 796.6 835.5 835.5 617.7 617.7 617.7 617.7 806.9 806.9 806.9 749.3 937.3 937.3 937.3 937.3 893.7 893.7 903.1 903.1 527.7 527.7 646.3 646.3 646.3 699.3 906.1 906.1 877.4 877.4 870.5 870.5 330.5 330.5 120.3 380.7 380.7 351.5 351.5 351.5 745.1 745.1 745.1 801.4 801.4 757.6 757.6 754.9 754.9 782.3 782.3 778.0 754.9 19.6 67.0 67.0 26.0 26.0 26.0 74.3 74.3 23.4 23.4 23.4 23.5 28.3 28.3 28.3 28.3 28.3 107.1 107.1 32.6 32.6 32.6 121.3 121.3 94.1 94.1 105.6 105.6 160.5 160.5 184.4 184.4 152.1 152.1 173.3 173.3 270.1 270.1 308.3 308.3 292.5 292.5 324.4 324.4 477.0 477.0 511.7 511.7 453.6 453.6 453.6 453.6 545.7 545.7 545.7 518.7 686.2 686.2 706.6 706.6 521.1 521.1 614.4 614.4 614.4 648.8 775.4 775.4 775.4 787.2 812.5 812.5 430.2 430.2 494.6 494.6 714.5 708.1 708.1 708.1 738.6 738.6 738.6 738.6 247.9 247.9 93.0 297.3 297.3 257.5 257.5 257.5 95.4 95.4 95.4 95.4 400.8 400.8 400.8 400.8 400.8 531.3 531.3 601.5 607.3 607.3 607.3 601.5 601.5 658.8 19.4 55.5 55.5 24.8 24.8 24.8 24.8 61.5 61.5 22.9 22.7 22.7 22.9 22.9 26.6 26.8 26.8 26.8 26.8 81.3 81.3 28.4 90.3 90.3 75.3 75.3 84.3 84.3 110.3 110.3 131.5 131.5 117.4 117.4 116.1 116.1 156.4 156.4 156.4 115.0 195.9 195.9 220.4 220.4 237.3 237.3 290.4 290.4 301.9 301.9 387.4 387.4 424.6 424.6 372.8 372.8 430.3 430.3 430.3 458.1 598.5 598.5 598.5 538.0 640.4 640.4 416.8 416.8 488.2 488.2 674.6 633.2 633.2 633.2 681.7 681.7 681.7 681.7 333.9 333.9 400.8 400.8 582.2 582.2 637.3 637.3 179.6 179.6 79.9 220.0 220.0 187.3 187.3 187.3 187.3 187.3 84.7 84.7 84.7 84.7 228.7 228.7 228.7 228.7 228.7 378.0 378.0 434.9 434.9 392.2 19.6 45.7 45.7 24.4 24.4 24.4 24.4 50.8 50.8 24.4 23.0 23.2 23.2 23.2 25.2 25.2 25.2 62.8 62.8 26.7 70.2 70.2 58.5 58.5 58.5 58.5 76.6 76.6 76.6 67.8 78.6 78.6 91.4 91.4 85.9 85.9 110.3 110.3 110.3 118.6 143.0 143.0 143.0 113.0 161.9 161.9 153.1 153.1 199.7 199.7 309.2 304.3 304.3 304.3 340.0 340.0 340.0 398.8 268.4 268.4 337.2 337.2 452.9 452.9 510.0 510.0 510.0 510.0 299.3 299.3 378.2 378.2 478.1 478.1 536.0 536.0 230.0 230.0 299.0 299.0 437.8 437.8 498.1 498.1 125.2 125.2 63.1 157.0 157.0 144.7 144.7 144.7 144.7 144.7 78.0 78.0 78.0 78.0 126.7 126.7 126.7 247.5 247.5 297.8 297.8 226.5 22.8 22.8 23.7 30.8 30.8 48.0 48.0 48.1 24.2 24.3 24.3 24.3 24.3 30.4 30.4 24.9 24.9 24.9 51.4 51.4 24.5 54.9 54.9 36.5 36.5 57.3 61.8 61.8 61.8 34.5 34.5 68.4 68.4 68.4 59.5 68.0 68.0 51.6 51.6 94.6 94.6 48.2 48.2 99.2 99.9 99.9 99.9 104.8 104.8 101.2 101.2 101.2 101.2 169.9 169.9 88.6 88.6 197.4 197.4 239.3 239.3 200.6 200.6 200.6 179.0 269.2 269.2 156.9 156.9 164.3 164.3 306.0 306.0 363.7 363.7 219.6 219.6 294.4 294.4 220.1 220.1 181.5 181.5 325.1 325.1 380.8 380.8 176.8 176.8 241.4 241.4 176.8 176.8 151.2 151.2 281.4 281.4 342.0 342.0 97.1 97.1 107.0 107.0 97.2 151.6 151.6 107.0 100.4 100.2 100.2 100.4 100.4 100.4 100.4 76.0 76.0 76.0 154.4 154.4 185.3 185.3 121.0 25.2 25.2 50.5 50.5 31.7 31.7 50.9 31.5 25.3 49.3 49.3 54.0 62.3 62.3 62.3 36.2 36.2 36.1 36.1 57.9 57.9 59.3 59.3 90.2 90.2 48.5 48.5 50.2 50.2 81.9 81.9 156.3 156.3 82.0 82.0 91.0 91.0 146.3 146.3 223.6 223.6 99.8 134.2 134.2 134.2 223.3 223.3 236.6 236.6 146.7 146.7 236.4 236.4 202.5 202.5 130.4 130.4 196.0 196.0 131.6 131.6 93.5 93.5 91.6 91.6 114.9 114.9 72.0 
         </DataArray>
        <DataArray type="Float32" Name="HRRPUA" format="ascii">
            0.0 0.0 0.0 0.0 0.0 0.0 0.0 0.0 0.0 0.0 0.0 0.0 0.0 0.0 0.0 0.0 0.0 0.0 0.0 0.0 0.0 0.0 0.0 0.0 0.0 0.0 0.0 0.0 0.0 0.0 0.0 0.0 0.0 0.0 0.0 0.0 0.0 0.0 0.0 0.0 0.0 0.0 0.0 0.0 0.0 0.0 0.0 0.0 0.0 0.0 0.0 0.0 0.0 0.0 0.0 0.0 0.0 0.0 0.0 0.0 0.0 0.0 0.0 0.0 0.0 0.0 0.0 0.0 0.0 0.0 0.0 0.0 0.0 0.0 0.0 0.0 0.0 0.0 0.0 0.0 0.0 0.0 0.0 0.0 0.0 0.0 0.0 0.0 0.0 0.0 0.0 0.0 0.0 0.0 0.0 0.0 0.0 0.0 0.0 0.0 0.0 0.0 0.0 0.0 0.0 0.0 0.0 0.0 0.0 0.0 0.0 0.0 0.0 0.0 0.0 0.0 0.0 0.0 0.0 0.0 0.0 0.0 0.0 0.0 0.0 0.0 0.0 0.0 0.0 0.0 0.0 0.0 0.0 0.0 0.0 0.0 0.0 0.0 0.0 0.0 0.0 0.0 0.0 0.0 0.0 0.0 0.0 0.0 0.0 0.0 0.0 0.0 0.0 0.0 0.0 0.0 0.0 0.0 0.0 0.0 0.0 0.0 0.0 0.0 0.0 0.0 0.0 0.0 0.0 0.0 0.0 0.0 0.0 0.0 0.0 0.0 0.0 0.0 0.0 0.0 0.0 0.0 0.0 0.0 0.0 0.0 0.0 0.0 0.0 0.0 0.0 0.0 0.0 0.0 0.0 0.0 0.0 0.0 0.0 0.0 0.0 0.0 0.0 0.0 0.0 0.0 0.0 0.0 0.0 0.0 0.0 0.0 0.0 0.0 0.0 0.0 0.0 0.0 0.0 0.0 0.0 0.0 0.0 0.0 0.0 0.0 0.0 0.0 0.0 0.0 0.0 0.0 0.0 0.0 0.0 0.0 0.0 0.0 0.0 0.0 0.0 0.0 0.0 0.0 0.0 0.0 0.0 0.0 0.0 0.0 0.0 0.0 0.0 0.0 0.0 0.0 0.0 0.0 0.0 0.0 0.0 0.0 0.0 0.0 0.0 0.0 0.0 0.0 0.0 0.0 0.0 0.0 0.0 0.0 0.0 0.0 0.0 0.0 0.0 0.0 0.0 0.0 0.0 0.0 0.0 0.0 0.0 0.0 0.0 0.0 0.0 0.0 0.0 0.0 0.0 0.0 0.0 0.0 0.0 0.0 0.0 0.0 0.0 0.0 0.0 0.0 0.0 0.0 0.0 0.0 0.0 0.0 0.0 0.0 0.0 0.0 0.0 0.0 0.0 0.0 0.0 0.0 0.0 0.0 0.0 0.0 0.0 0.0 0.0 0.0 0.0 0.0 0.0 0.0 0.0 0.0 0.0 0.0 0.0 0.0 0.0 0.0 0.0 0.0 0.0 0.0 0.0 0.0 0.0 0.0 0.0 0.0 0.0 0.0 0.0 0.0 0.0 0.0 0.0 0.0 0.0 0.0 0.0 0.0 0.0 0.0 0.0 0.0 0.0 0.0 0.0 0.0 0.0 0.0 0.0 0.0 0.0 0.0 0.0 0.0 0.0 0.0 0.0 0.0 0.0 0.0 0.0 0.0 0.0 0.0 0.0 0.0 0.0 0.0 0.0 0.0 0.0 0.0 0.0 0.0 0.0 0.0 0.0 0.0 0.0 0.0 0.0 0.0 0.0 0.0 0.0 0.0 0.0 0.0 0.0 0.0 0.0 0.0 0.0 0.0 0.0 0.0 0.0 0.0 0.0 0.0 0.0 0.0 0.0 0.0 0.0 0.0 0.0 0.0 0.0 0.0 0.0 0.0 0.0 0.0 0.0 0.0 0.0 0.0 0.0 0.0 0.0 0.0 0.0 0.0 0.0 0.0 0.0 0.0 0.0 0.0 0.0 0.0 0.0 0.0 0.0 0.0 0.0 0.0 0.0 0.0 0.0 0.0 0.0 0.0 0.0 0.0 0.0 0.0 0.0 0.0 0.0 0.0 0.0 0.0 0.0 0.0 0.0 0.0 0.0 0.0 0.0 0.0 0.0 0.0 0.0 0.0 0.0 0.0 0.0 0.0 0.0 0.0 0.0 0.0 0.0 0.0 0.0 0.0 0.0 0.0 0.0 0.0 0.0 0.0 0.0 0.0 0.0 0.0 0.0 0.0 0.0 0.0 0.0 0.0 0.0 0.0 0.0 0.0 0.0 0.0 0.0 0.0 0.0 0.0 0.0 0.0 0.0 0.0 0.0 0.0 0.0 0.0 0.0 0.0 0.0 0.0 0.0 0.0 0.0 0.0 0.0 0.0 0.0 0.0 0.0 0.0 0.0 0.0 0.0 0.0 0.0 0.0 0.0 0.0 0.0 0.0 0.0 0.0 0.0 0.0 0.0 0.0 0.0 0.0 0.0 0.0 0.0 0.0 0.0 0.0 0.0 0.0 0.0 0.0 0.0 0.0 0.0 0.0 0.0 0.0 0.0 0.0 0.0 0.0 0.0 0.0 0.0 0.0 0.0 0.0 0.0 0.0 0.0 0.0 0.0 0.0 0.0 0.0 0.0 0.0 0.0 0.0 0.0 0.0 0.0 0.0 0.0 0.0 0.0 0.0 0.0 0.0 0.0 0.0 0.0 0.0 0.0 0.0 0.0 0.0 0.0 0.0 0.0 0.0 0.0 0.0 0.0 0.0 0.0 0.0 0.0 0.0 0.0 0.0 0.0 0.0 0.0 0.0 0.0 0.0 0.0 0.0 0.0 0.0 0.0 0.0 0.0 0.0 0.0 0.0 0.0 0.0 0.0 0.0 0.0 0.0 0.0 0.0 0.0 0.0 0.0 0.0 0.0 0.0 0.0 0.0 0.0 0.0 0.0 0.0 0.0 0.0 0.0 0.0 0.0 0.0 0.0 0.0 0.0 0.0 0.0 0.0 0.0 0.0 0.0 0.0 0.0 0.0 0.0 0.0 0.0 0.0 0.0 0.0 
         </DataArray>
        <DataArray type="Float32" Name="GAS TEMPERATURE" format="ascii">
            26.0 26.0 26.0 27.2 27.2 27.2 27.2 27.2 27.2 29.7 29.7 31.7 31.7 31.7 31.7 39.3 39.3 42.0 42.0 42.0 42.0 120.0 120.0 67.7 67.7 67.7 67.7 308.9 308.9 151.7 151.7 151.7 151.7 419.8 419.8 410.5 410.5 410.5 410.5 410.5 410.5 397.1 397.1 397.1 397.1 324.3 324.3 324.3 324.3 324.3 324.3 324.3 324.3 129.2 129.2 129.2 89.8 89.8 89.8 89.8 89.8 89.8 89.8 89.8 26.2 26.2 26.2 30.2 30.2 30.2 30.2 30.2 29.5 29.5 29.5 29.5 29.5 27.7 27.7 27.7 27.7 27.7 27.7 27.7 27.7 31.2 31.2 29.7 29.7 35.0 35.0 35.0 35.0 35.0 35.0 35.0 35.0 42.6 42.6 39.3 39.3 44.3 44.3 44.3 44.3 44.3 44.3 44.3 44.3 93.1 93.1 120.0 120.0 70.1 70.1 70.1 70.1 70.1 70.1 70.1 70.1 70.1 70.1 273.6 273.6 308.9 308.9 195.2 195.2 195.2 195.2 195.2 195.2 195.2 195.2 342.8 342.8 342.8 342.8 419.8 419.8 419.8 419.8 390.9 390.9 390.9 390.9 390.9 390.9 390.9 390.9 323.2 323.2 397.1 397.1 397.1 397.1 322.0 322.0 322.0 322.0 322.0 322.0 197.8 197.8 197.8 218.0 218.0 218.0 218.0 218.0 133.2 133.2 133.2 133.2 133.2 104.0 104.0 104.0 104.0 104.0 104.0 104.0 104.0 28.3 28.3 28.3 26.1 26.1 26.1 26.1 26.1 28.4 28.4 28.4 28.4 28.7 28.7 28.7 28.7 28.7 28.7 28.7 27.8 27.8 27.8 27.8 27.8 45.9 45.9 31.2 31.2 32.8 32.8 32.8 32.8 72.3 72.3 42.6 42.6 40.0 40.0 40.0 40.0 101.7 101.7 93.1 93.1 60.0 60.0 60.0 60.0 238.7 238.7 238.7 238.7 273.6 273.6 273.6 273.6 152.8 152.8 152.8 152.8 316.5 316.5 342.8 342.8 342.8 342.8 328.9 328.9 328.9 328.9 328.9 328.9 247.6 247.6 323.2 323.2 276.4 276.4 276.4 276.4 276.4 276.4 276.4 276.4 69.9 69.9 69.9 186.7 186.7 186.7 186.7 186.7 160.1 160.1 160.1 160.1 112.0 112.0 112.0 112.0 112.0 112.0 112.0 112.0 112.0 112.0 112.0 112.0 112.0 112.0 34.6 34.6 34.6 27.4 27.4 27.4 27.4 27.4 27.4 27.4 25.4 25.4 25.4 25.4 26.6 26.6 26.6 26.6 26.6 26.6 26.6 27.3 27.3 27.3 93.6 93.6 45.9 45.9 28.9 28.9 28.9 28.9 124.9 124.9 124.9 124.9 72.3 72.3 72.3 72.3 33.6 33.6 33.6 33.6 150.6 150.6 101.7 101.7 101.7 101.7 47.7 47.7 47.7 47.7 228.3 228.3 238.7 238.7 238.7 238.7 116.6 116.6 116.6 116.6 116.6 116.6 253.2 253.2 316.5 316.5 273.6 273.6 273.6 273.6 273.6 273.6 273.6 273.6 125.2 125.2 247.6 247.6 146.7 146.7 146.7 146.7 35.9 35.9 35.9 62.9 62.9 62.9 62.9 62.9 62.9 62.9 115.0 115.0 115.0 115.0 75.4 75.4 75.4 75.4 75.4 75.4 75.4 62.4 62.4 62.4 30.6 30.6 30.6 34.6 34.6 34.6 34.6 34.6 34.6 34.6 27.1 27.1 27.1 27.1 24.9 24.9 24.9 24.9 24.9 25.3 25.3 25.3 66.9 66.9 66.9 66.9 93.6 93.6 93.6 93.6 27.0 27.0 27.0 27.0 120.5 120.5 124.9 124.9 124.9 124.9 36.8 36.8 36.8 36.8 36.8 36.8 171.2 171.2 150.6 150.6 88.6 88.6 88.6 88.6 88.6 88.6 88.6 88.6 203.9 203.9 228.3 228.3 138.7 138.7 138.7 138.7 138.7 138.7 177.3 177.3 253.2 253.2 241.2 241.2 241.2 241.2 69.0 69.0 125.2 125.2 135.2 135.2 135.2 135.2 38.5 38.5 38.5 37.7 37.7 37.7 37.7 37.7 37.7 37.7 51.4 51.4 51.4 51.4 73.0 73.0 73.0 73.0 73.0 48.0 48.0 48.0 29.5 29.5 29.5 29.5 29.5 29.5 29.5 29.5 29.8 29.8 29.8 29.8 29.8 29.8 29.8 26.2 26.2 26.2 26.2 26.2 24.3 24.3 24.3 57.6 57.6 57.6 57.6 57.6 57.6 35.2 35.2 26.6 26.6 26.6 26.6 26.6 26.6 102.8 102.8 102.8 102.8 53.1 53.1 34.8 34.8 34.8 34.8 34.8 34.8 34.8 34.8 164.4 164.4 164.4 164.4 104.6 104.6 146.6 146.6 146.6 146.6 195.6 195.6 195.6 195.6 195.6 195.6 163.2 163.2 163.2 163.2 214.6 214.6 214.6 214.6 145.4 145.4 145.4 145.4 145.4 145.4 159.3 159.3 234.8 234.8 234.8 234.8 80.4 80.4 80.4 80.4 80.4 80.4 125.8 125.8 115.5 115.5 115.5 115.5 56.3 56.3 56.3 56.3 56.3 56.3 56.3 56.3 44.9 44.9 44.9 44.9 44.9 44.9 44.9 51.6 51.6 51.6 51.6 51.6 53.0 53.0 53.0 26.3 26.3 26.3 26.3 26.3 26.3 26.3 26.3 25.0 25.0 25.0 35.2 35.2 35.2 35.2 35.2 35.2 35.2 35.2 28.4 28.4 28.4 28.4 53.1 53.1 53.1 53.1 53.1 53.1 31.7 31.7 104.6 104.6 104.6 104.6 104.6 104.6 95.1 95.1 163.2 163.2 163.2 163.2 163.2 163.2 202.3 202.3 159.3 159.3 159.3 159.3 222.0 222.0 125.8 125.8 125.8 125.8 145.8 145.8 51.1 51.1 51.1 51.1 51.1 51.1 61.8 61.8 61.8 
         </DataArray>
    </CellData>
    <Polys>
        <DataArray type="Int32" Name="connectivity" format="ascii">