<?xml version="1.0"?>
<VTKFile type="RectilinearGrid" version="1.0" byte_order="LittleEndian" header_type="UInt64">
<RectilinearGrid WholeExtent="25 50 0 25 0 15">
<Piece Extent="25 50 0 25 0 15">
<Coordinates>
<DataArray type="Float64" Name="Array X-Axis" format="ascii" RangeMin="15.0" RangeMax="30.0">
15.0 15.6 16.2 16.8 17.4 18.0 18.6 19.2 19.8 20.4 21.0 21.6 22.2 22.8 23.4 24.0 24.6 25.2 25.8 26.4 27.0 27.6 28.2 28.8 29.4 30.0 
</DataArray>
<DataArray type="Float64" Name="Array Y-Axis" format="ascii" RangeMin="0.0" RangeMax="15.0">
0.0 0.6 1.2 1.8 2.4 3.0 3.6 4.2 4.8 5.4 6.0 6.6 7.2 7.8 8.4 9.0 9.6 10.2 10.8 11.4 12.0 12.6 13.2 13.8 14.4 15.0 
</DataArray>
<DataArray type="Float64" Name="Array Z-Axis" format="ascii" RangeMin="0.0" RangeMax="9.0">
0.0 0.6 1.2 1.8 2.4 3.0 3.6 4.2 4.8 5.4 6.0 6.6 7.2 7.8 8.4 9.0 
</DataArray>
</Coordinates>
<PointData>
<DataArray Name="SOOT DENSITY" NumberOfComponents="1" type="UInt8" format="ascii">
0 0 0 0 0 0 0 0 0 0 0 0 0 0 0 0 0 0 0 0 0 0 0 0 0 0 0 0 0 0 0 0 0 0 0 0 0 0 0 0 0 0 0 0 0 0 0 0 0 0 0 0 0 0 0 0 0 0 0 0 0 0 0 0 0 0 0 0 0 0 0 0 0 0 0 0 0 0 0 0 0 0 0 0 0 0 0 0 0 0 0 0 0 0 0 0 0 0 0 0 0 0 0 0 0 0 0 0 0 0 0 0 0 0 0 0 0 0 0 0 0 0 0 0 0 0 0 0 0 0 0 0 0 0 0 0 0 0 0 0 0 0 0 0 0 0 0 0 0 0 0 0 0 0 0 0 0 0 0 0 0 0 0 0 0 0 0 0 0 0 0 0 0 0 0 0 0 0 0 0 0 0 0 0 0 0 0 0 0 0 0 0 0 0 0 0 0 0 0 0 0 0 0 0 0 0 0 0 0 0 0 0 0 0 0 0 0 0 0 0 0 0 0 0 0 0 0 0 0 0 0 0 0 0 0 0 0 0 0 0 0 0 0 0 0 0 0 0 0 0 0 0 0 0 0 0 0 0 0 0 0 0 0 0 0 0 0 0 0 0 0 0 0 0 0 0 0 0 0 0 0 0 0 0 0 0 0 0 0 0 0 0 0 0 0 0 0 0 0 0 0 0 0 0 0 0 0 0 0 0 0 0 0 0 0 0 0 0 0 0 0 0 0 0 0 0 0 0 0 0 0 0 0 0 0 0 0 0 0 0 0 0 0 0 0 0 0 0 0 0 0 0 0 0 0 0 0 0 0 0 0 0 0 0 0 0 0 0 0 0 0 0 0 0 0 0 0 0 0 0 0 0 0 0 0 0 0 0 0 0 0 0 0 0 0 0 0 0 0 0 0 0 0 0 0 0 0 0 0 0 0 0 0 0 0 0 0 0 0 0 0 0 0 0 0 0 0 0 0 0 0 0 0 0 0 0 0 0 0 0 0 0 0 0 0 0 0 0 0 0 0 0 0 0 0 0 0 0 0 0 0 0 0 0 0 0 0 0 0 0 0 0 1 1 1 0 0 0 0 0 0 0 0 0 0 0 0 0 0 0 0 0 0 0 0 0 1 7 11 11 9 4 1 0 0 0 0 0 0 0 0 0 0 0 0 0 0 0 0 0 0 0 2 12 16 10 8 6 3 0 0 0 0 0 0 0 0 0 0 0 0 0 0 0 0 0 0 0 1 9 8 0 0 6 7 1 0 0 0 0 0 0 0 0 0 0 0 0 0 0 0 0 0 0 1 7 6 0 0 8 8 1 0 0 0 0 0 0 0 0 0 0 0 0 0 0 0 0 0 0 1 7 8 10 12 9 5 0 0 0 0 0 0 0 0 0 0 0 0 0 0 0 0 0 0 0 1 4 6 12 14 6 1 0 0 0 0 0 0 0 0 0 0 0 0 0 0 0 0 0 0 0 0 1 1 2 2 0 0 0 0 0 0 0 0 0 0 0 0 0 0 0 0 0 0 0 0 0 0 0 0 0 0 0 0 0 0 0 0 0 0 0 0 0 0 0 0 0 0 0 0 0 0 0 0 0 0 0 0 0 0 0 0 0 0 0 0 0 0 0 0 0 0 0 0 0 0 0 0 0 0 0 0 0 0 0 0 0 0 0 0 0 0 0 0 0 0 0 0 0 0 0 0 0 0 0 0 0 0 0 0 0 0 0 0 0 0 0 0 0 0 0 0 0 0 0 0 0 0 0 0 0 0 0 0 0 0 0 0 0 0 0 0 0 0 0 0 0 0 0 0 0 0 0 0 0 0 0 0 0 0 0 0 0 0 0 0 0 0 0 0 0 0 0 0 0 0 0 0 0 0 0 0 0 0 0 0 0 0 0 0 0 0 0 0 0 0 0 0 0 0 0 0 0 0 0 0 0 0 0 0 0 0 0 0 0 0 0 0 0 0 0 0 0 0 0 0 0 0 0 0 0 0 0 0 0 0 0 0 0 0 0 0 0 0 0 0 0 0 0 0 0 0 0 0 0 0 0 0 0 0 0 0 0 0 0 0 0 0 0 0 0 0 0 0 0 0 0 0 0 0 0 0 0 0 0 0 0 0 0 0 0 0 0 0 0 0 0 0 0 0 0 0 0 0 0 0 0 0 0 0 0 0 0 0 0 0 0 0 0 0 0 0 0 0 0 0 0 0 0 0 0 0 0 0 0 0 0 0 0 0 0 0 0 0 0 0 0 0 0 0 0 0 0 0 0 0 0 0 0 0 0 0 0 0 0 0 0 0 0 0 0 0 0 0 0 0 0 0 0 0 0 0 0 0 0 0 0 0 0 0 0 0 0 0 0 0 0 0 0 0 0 0 0 0 0 0 0 0 0 0 0 0 0 0 0 0 0 0 0 0 0 0 0 0 0 0 0 0 0 0 0 0 0 0 0 0 0 0 0 0 0 0 0 0 0 0 0 0 0 0 0 0 0 0 0 0 0 0 0 0 0 0 0 0 0 0 0 0 0 0 0 1 0 0 0 0 0 0 0 0 0 0 0 0 0 0 0 0 0 0 0 0 0 0 0 1 3 5 5 5 3 0 0 0 0 0 0 0 0 0 0 0 0 0 0 0 0 0 0 0 1 9 32 43 44 42 23 4 0 0 0 0 0 0 0 0 0 0 0 0 0 0 0 0 0 0 1 13 62 127 167 165 103 23 2 0 0 0 0 0 0 0 0 0 0 0 0 0 0 0 0 0 1 7 53 154 218 232 196 65 5 0 0 0 0 0 0 0 0 0 0 0 0 0 0 0 0 0 1 9 42 133 228 246 226 99 8 0 0 0 0 0 0 0 0 0 0 0 0 0 0 0 0 0 1 8 33 96 220 239 202 81 4 0 0 0 0 0 0 0 0 0 0 0 0 0 0 0 0 0 0 2 10 35 148 170 92 24 0 0 0 0 0 0 0 0 0 0 0 0 0 0 0 0 0 0 0 0 1 4 27 29 6 1 0 0 0 0 0 0 0 0 0 0 0 0 0 0 0 0 0 0 0 0 0 0 0 0 0 0 0 0 0 0 0 0 0 0 0 0 0 0 0 0 0 0 0 0 0 0 0 0 0 0 0 0 0 0 0 0 0 0 0 0 0 0 0 0 0 0 0 0 0 0 0 0 0 0 0 0 0 0 0 0 0 0 0 0 0 0 0 0 0 0 0 0 0 0 0 0 0 0 0 0 0 0 0 0 0 0 0 0 0 0 0 0 0 0 0 0 0 0 0 0 0 0 0 0 0 0 0 0 0 0 0 0 0 0 0 0 0 0 0 0 0 0 0 0 0 0 0 0 0 0 0 0 0 0 0 0 0 0 0 0 0 0 0 0 0 0 0 0 0 0 0 0 0 0 0 0 0 0 0 0 0 0 0 0 0 0 0 0 0 0 0 0 0 0 0 0 0 0 0 0 0 0 0 0 0 0 0 0 0 0 0 0 0 0 0 0 0 0 0 0 0 0 0 0 0 0 0 0 0 0 0 0 0 0 0 0 0 0 0 0 0 0 0 0 0 0 0 0 0 0 0 0 0 0 0 0 0 0 0 0 0 0 0 0 0 0 0 0 0 0 0 0 0 0 0 0 0 0 0 0 0 0 0 0 0 0 0 0 0 0 0 0 0 0 0 0 0 0 0 0 0 0 0 0 0 0 0 0 0 0 0 0 0 0 0 0 0 0 0 0 0 0 0 0 0 0 0 0 0 0 0 0 0 0 0 0 0 0 0 0 0 0 0 0 0 0 0 0 0 0 0 0 0 0 0 0 0 0 0 0 0 0 0 0 0 0 0 0 0 0 0 0 0 0 0 0 0 0 0 0 0 0 0 0 0 0 0 0 0 0 0 0 0 0 0 0 0 0 0 0 0 0 0 0 0 0 0 0 0 0 0 0 0 0 0 0 0 0 0 0 0 0 0 0 0 0 0 0 0 0 0 0 0 0 0 0 2 3 1 0 0 0 0 0 0 0 0 0 0 0 0 0 0 0 0 0 0 0 0 0 0 1 8 9 3 3 2 0 0 0 0 0 0 0 0 0 0 0 0 0 0 0 0 0 0 2 3 5 16 19 15 23 18 2 0 0 0 0 0 0 0 0 0 0 0 0 0 0 0 0 0 3 7 22 55 76 88 103 69 11 1 0 0 0 0 0 0 0 0 0 0 0 0 0 0 0 0 2 10 40 130 202 228 226 170 44 6 1 0 0 0 0 0 0 0 0 0 0 0 0 0 0 0 2 15 43 146 234 251 252 243 139 14 1 0 0 0 0 0 0 0 0 0 0 0 0 0 0 0 2 14 44 145 236 253 254 252 175 16 1 0 0 0 0 0 0 0 0 0 0 0 0 0 0 0 1 6 29 124 208 250 253 242 123 8 0 0 0 0 0 0 0 0 0 0 0 0 0 0 0 0 0 1 5 44 89 188 204 125 33 1 0 0 0 0 0 0 0 0 0 0 0 0 0 0 0 0 0 0 0 5 12 35 35 8 1 0 0 0 0 0 0 0 0 0 0 0 0 0 0 0 0 0 0 0 0 0 0 0 0 0 0 0 0 0 0 0 0 0 0 0 0 0 0 0 0 0 0 0 0 0 0 0 0 0 0 0 0 0 0 0 0 0 0 0 0 0 0 0 0 0 0 0 0 0 0 0 0 0 0 0 0 0 0 0 0 0 0 0 0 0 0 0 0 0 0 0 0 0 0 0 0 0 0 0 0 0 0 0 0 0 0 0 0 0 0 0 0 0 0 0 0 0 0 0 0 0 0 0 0 0 0 0 0 0 0 0 0 0 0 0 0 0 0 0 0 0 0 0 0 0 0 0 0 0 0 0 0 0 0 0 0 0 0 0 0 0 0 0 0 0 0 0 0 0 0 0 0 0 0 0 0 0 0 0 0 0 0 0 0 0 0 0 0 0 0 0 0 0 0 0 0 0 0 0 0 0 0 0 0 0 0 0 0 0 0 0 0 0 0 0 0 0 0 0 0 0 0 0 0 0 0 0 0 0 0 0 0 0 0 0 0 0 0 0 0 0 0 0 0 0 0 0 0 0 0 0 0 0 0 0 0 0 0 0 0 0 0 0 0 0 0 0 0 0 0 0 0 0 0 0 0 0 0 0 0 0 0 0 0 0 0 0 0 0 0 0 0 0 0 0 0 0 0 0 0 0 0 0 0 0 0 0 0 0 0 0 0 0 0 0 0 0 0 0 0 0 0 0 0 0 0 0 0 0 0 0 0 0 0 0 0 0 0 0 0 0 0 0 0 0 0 0 0 0 0 0 0 0 0 0 0 0 0 0 0 0 0 0 0 0 0 0 0 0 0 0 0 0 0 0 0 0 0 0 0 0 0 0 0 0 0 0 0 0 0 0 0 0 0 0 0 0 0 0 0 0 0 0 0 0 0 0 0 0 1 0 0 0 0 0 0 0 0 0 0 0 0 0 0 0 0 0 0 0 0 0 0 0 0 1 5 7 4 1 0 0 0 0 0 0 0 0 0 0 0 0 0 0 0 0 0 0 0 0 2 6 20 28 16 0 4 3 0 0 0 0 0 0 0 0 0 0 0 0 0 0 0 0 0 0 24 29 39 45 32 0 26 20 4 0 0 0 0 0 0 0 0 0 0 0 0 0 0 0 0 0 33 48 73 96 99 0 112 80 19 5 2 0 0 0 0 0 0 0 0 0 0 0 0 0 0 0 26 80 152 206 224 0 223 187 93 36 13 0 0 0 0 0 0 0 0 0 0 0 0 0 0 0 37 110 181 232 249 0 252 247 197 71 19 1 0 0 0 0 0 0 0 0 0 0 0 0 0 0 48 117 177 233 251 0 254 252 201 59 10 0 0 0 0 0 0 0 0 0 0 0 0 0 0 0 33 80 130 206 239 0 251 236 108 20 3 0 0 0 0 0 0 0 0 0 0 0 0 0 0 0 7 15 24 80 121 142 146 91 22 3 0 0 0 0 0 0 0 0 0 0 0 0 0 0 0 0 0 1 3 15 24 24 16 6 1 0 0 0 0 0 0 0 0 0 0 0 0 0 0 0 0 0 0 0 0 0 0 0 0 0 0 0 0 0 0 0 0 0 0 0 0 0 0 0 0 0 0 0 0 0 0 0 0 0 0 0 0 0 0 0 0 0 0 0 0 0 0 0 0 0 0 0 0 0 0 0 0 0 0 0 0 0 0 0 0 0 0 0 0 0 0 0 0 0 0 0 0 0 0 0 0 0 0 0 0 0 0 0 0 0 0 0 0 0 0 0 0 0 0 0 0 0 0 0 0 0 0 0 0 0 0 0 0 0 0 0 0 0 0 0 0 0 0 0 0 0 0 0 0 0 0 0 0 0 0 0 0 0 0 0 0 0 0 0 0 0 0 0 0 0 0 0 0 0 0 0 0 0 0 0 0 0 0 0 0 0 0 0 0 0 0 0 0 0 0 0 0 0 0 0 0 0 0 0 0 0 0 0 0 0 0 0 0 0 0 0 0 0 0 0 0 0 0 0 0 0 0 0 0 0 0 0 0 0 0 0 0 0 0 0 0 0 0 0 0 0 0 0 0 0 0 0 0 0 0 0 0 0 0 0 0 0 0 0 0 0 0 0 0 0 0 0 0 0 0 0 0 0 0 0 0 0 0 0 0 0 0 0 0 0 0 0 0 0 0 0 0 0 0 0 0 0 0 0 0 0 0 0 0 0 0 0 0 0 0 0 0 0 0 0 0 0 0 0 0 0 0 0 0 0 0 0 0 0 0 0 0 0 0 0 0 0 0 0 0 0 0 0 0 0 0 0 0 0 0 0 0 0 0 0 0 0 0 0 0 0 0 0 0 0 0 0 0 0 0 0 0 0 0 0 0 0 0 0 0 0 0 0 0 0 0 0 0 0 0 0 0 0 0 0 0 0 0 0 0 0 0 0 0 0 0 0 0 5 6 1 0 0 0 0 0 0 0 0 0 0 0 0 0 0 0 0 0 0 0 0 0 0 2 21 30 15 4 1 0 0 0 0 0 0 0 0 0 0 0 0 0 0 0 0 0 0 0 0 9 42 66 48 0 0 0 1 0 0 0 0 0 0 0 0 0 0 0 0 0 0 0 0 0 0 60 86 97 74 0 0 0 9 11 8 0 0 0 0 0 0 0 0 0 0 0 0 0 0 0 0 85 128 152 141 0 0 0 58 63 48 10 0 0 0 0 0 0 0 0 0 0 0 0 0 0 0 69 170 226 236 0 0 0 190 170 129 53 1 0 0 0 0 0 0 0 0 0 0 0 0 0 0 80 198 242 249 0 0 0 248 231 171 67 2 0 0 0 0 0 0 0 0 0 0 0 0 0 0 87 203 241 250 0 0 0 249 225 158 41 1 0 0 0 0 0 0 0 0 0 0 0 0 0 0 53 168 219 234 0 0 0 212 143 99 18 0 0 0 0 0 0 0 0 0 0 0 0 0 0 0 13 79 111 110 118 101 98 82 49 28 2 0 0 0 0 0 0 0 0 0 0 0 0 0 0 0 2 26 36 26 26 21 20 14 3 1 0 0 0 0 0 0 0 0 0 0 0 0 0 0 0 0 0 0 0 0 0 0 0 0 0 0 0 0 0 0 0 0 0 0 0 0 0 0 0 0 0 0 0 0 0 0 0 0 0 0 0 0 0 0 0 0 0 0 0 0 0 0 0 0 0 0 0 0 0 0 0 0 0 0 0 0 0 0 0 0 0 0 0 0 0 0 0 0 0 0 0 0 0 0 0 0 0 0 0 0 0 0 0 0 0 0 0 0 0 0 0 0 0 0 0 0 0 0 0 0 0 0 0 0 0 0 0 0 0 0 0 0 0 0 0 0 0 0 0 0 0 0 0 0 0 0 0 0 0 0 0 0 0 0 0 0 0 0 0 0 0 0 0 0 0 0 0 0 0 0 0 0 0 0 0 0 0 0 0 0 0 0 0 0 0 0 0 0 0 0 0 0 0 0 0 0 0 0 0 0 0 0 0 0 0 0 0 0 0 0 0 0 0 0 0 0 0 0 0 0 0 0 0 0 0 0 0 0 0 0 0 0 0 0 0 0 0 0 0 0 0 0 0 0 0 0 0 0 0 0 0 0 0 0 0 0 0 0 0 0 0 0 0 0 0 0 0 0 0 0 0 0 0 0 0 0 0 0 0 0 0 0 0 0 0 0 0 0 0 0 0 0 0 0 0 0 0 0 0 0 0 0 0 0 0 0 0 0 0 0 0 0 0 0 0 0 0 0 0 0 0 0 0 0 0 0 0 0 0 0 0 0 0 0 0 0 0 0 0 0 0 0 0 0 0 0 0 0 0 0 0 0 0 0 0 0 0 0 0 0 0 0 0 0 0 0 0 0 0 0 0 0 0 0 0 0 0 0 0 0 0 0 0 0 0 0 0 0 0 0 0 0 0 0 0 0 0 0 0 0 0 0 0 0 0 0 0 6 7 2 0 0 0 0 0 0 0 0 0 0 0 0 0 0 0 0 0 0 0 0 0 0 20 47 45 19 4 1 0 0 0 0 0 0 0 0 0 0 0 0 0 0 0 0 0 0 0 0 68 110 105 0 0 0 1 1 1 0 0 0 0 0 0 0 0 0 0 0 0 0 0 0 0 0 116 155 141 0 0 0 6 8 15 11 0 0 0 0 0 0 0 0 0 0 0 0 0 0 0 0 147 197 196 0 0 0 33 58 94 75 15 0 0 0 0 0 0 0 0 0 0 0 0 0 0 0 165 228 243 0 0 0 153 187 203 172 72 2 0 0 0 0 0 0 0 0 0 0 0 0 0 0 183 239 250 0 0 0 244 246 242 207 89 3 0 0 0 0 0 0 0 0 0 0 0 0 0 0 169 239 250 0 0 0 245 245 239 201 64 1 0 0 0 0 0 0 0 0 0 0 0 0 0 0 92 214 241 0 0 0 181 179 188 153 35 1 0 0 0 0 0 0 0 0 0 0 0 0 0 0 20 123 163 127 98 79 80 80 76 53 5 0 0 0 0 0 0 0 0 0 0 0 0 0 0 0 5 43 58 34 20 17 26 21 5 1 0 0 0 0 0 0 0 0 0 0 0 0 0 0 0 0 0 0 0 0 0 0 0 0 0 0 0 0 0 0 0 0 0 0 0 0 0 0 0 0 0 0 0 0 0 0 0 0 0 0 0 0 0 0 0 0 0 0 0 0 0 0 0 0 0 0 0 0 0 0 0 0 0 0 0 0 0 0 0 0 0 0 0 0 0 0 0 0 0 0 0 0 0 0 0 0 0 0 0 0 0 0 0 0 0 0 0 0 0 0 0 0 0 0 0 0 0 0 0 0 0 0 0 0 0 0 0 0 0 0 0 0 0 0 0 0 0 0 0 0 0 0 0 0 0 0 0 0 0 0 0 0 0 0 0 0 0 0 0 0 0 0 0 0 0 0 0 0 0 0 0 0 0 0 0 0 0 0 0 0 0 0 0 0 0 0 0 0 0 0 0 0 0 0 0 0 0 0 0 0 0 0 0 0 0 0 0 0 0 0 0 0 0 0 0 0 0 0 0 0 0 0 0 0 0 0 0 0 0 0 0 0 0 0 0 0 0 0 0 0 0 0 0 0 0 0 0 0 0 0 0 0 0 0 0 0 0 0 0 0 0 0 0 0 0 0 0 0 0 0 0 0 0 0 0 0 0 0 0 0 0 0 0 0 0 0 0 0 0 0 0 0 0 0 0 0 0 0 0 0 0 0 0 0 0 0 0 0 0 0 0 0 0 0 0 0 0 0 0 0 0 0 0 0 0 0 0 0 0 0 0 0 0 0 0 0 0 0 0 0 0 0 0 0 0 0 0 0 0 0 0 0 0 0 0 0 0 0 0 0 0 0 0 0 0 0 0 0 0 0 0 0 0 0 0 0 0 0 0 0 0 0 0 0 0 0 0 0 0 0 0 0 0 0 0 0 0 0 0 0 0 0 0 0 0 0 1 2 3 1 0 0 0 0 0 0 0 0 0 0 0 0 0 0 0 0 0 0 0 0 0 0 24 42 34 14 2 1 0 0 0 0 0 0 0 0 0 0 0 0 0 0 0 0 0 0 0 0 100 136 0 0 0 2 1 2 2 0 0 0 0 0 0 0 0 0 0 0 0 0 0 0 0 0 148 184 0 0 0 5 7 10 10 5 0 0 0 0 0 0 0 0 0 0 0 0 0 0 0 0 179 219 0 0 0 21 33 56 68 43 9 0 0 0 0 0 0 0 0 0 0 0 0 0 0 0 216 244 0 0 0 92 124 179 185 128 44 1 0 0 0 0 0 0 0 0 0 0 0 0 0 0 235 249 0 0 0 220 229 243 237 177 60 2 0 0 0 0 0 0 0 0 0 0 0 0 0 0 231 249 0 0 0 227 231 243 240 182 52 1 0 0 0 0 0 0 0 0 0 0 0 0 0 0 181 236 0 0 0 147 143 184 194 133 32 1 0 0 0 0 0 0 0 0 0 0 0 0 0 0 84 166 190 146 91 69 66 72 64 36 5 0 0 0 0 0 0 0 0 0 0 0 0 0 0 0 17 73 97 63 28 18 23 17 4 1 0 0 0 0 0 0 0 0 0 0 0 0 0 0 0 0 0 0 0 0 0 0 0 0 0 0 0 0 0 0 0 0 0 0 0 0 0 0 0 0 0 0 0 0 0 0 0 0 0 0 0 0 0 0 0 0 0 0 0 0 0 0 0 0 0 0 0 0 0 0 0 0 0 0 0 0 0 0 0 0 0 0 0 0 0 0 0 0 0 0 0 0 0 0 0 0 0 0 0 0 0 0 0 0 0 0 0 0 0 0 0 0 0 0 0 0 0 0 0 0 0 0 0 0 0 0 0 0 0 0 0 0 0 0 0 0 0 0 0 0 0 0 0 0 0 0 0 0 0 0 0 0 0 0 0 0 0 0 0 0 0 0 0 0 0 0 0 0 0 0 0 0 0 0 0 0 0 0 0 0 0 0 0 0 0 0 0 0 0 0 0 0 0 0 0 0 0 0 0 0 0 0 0 0 0 0 0 0 0 0 0 0 0 0 0 0 0 0 0 0 0 0 0 0 0 0 0 0 0 0 0 0 0 0 0 0 0 0 0 0 0 0 0 0 0 0 0 0 0 0 0 0 0 0 0 0 0 0 0 0 0 0 0 0 0 0 0 0 0 0 0 0 0 0 0 0 0 0 0 0 0 0 0 0 0 0 0 0 0 0 0 0 0 0 0 0 0 0 0 0 0 0 0 0 0 0 0 0 0 0 0 0 0 0 0 0 0 0 0 0 0 0 0 0 0 0 0 0 0 0 0 0 0 0 0 0 0 0 0 0 0 0 0 0 0 0 0 0 0 0 0 0 0 0 0 0 0 0 0 0 0 0 0 0 0 0 0 0 0 0 0 0 0 0 0 0 0 0 0 0 0 0 0 0 0 0 0 0 0 0 0 0 0 0 0 0 0 0 0 0 0 0 0 0 0 0 1 1 1 0 0 0 0 0 0 0 0 0 0 0 0 0 0 0 0 0 0 0 0 0 0 0 13 21 18 7 1 0 0 0 0 0 0 0 0 0 0 0 0 0 0 0 0 0 0 0 0 0 98 0 0 0 2 1 2 5 5 1 0 0 0 0 0 0 0 0 0 0 0 0 0 0 0 0 167 0 0 0 11 10 16 22 15 3 0 0 0 0 0 0 0 0 0 0 0 0 0 0 0 0 196 0 0 0 61 49 65 74 51 15 3 0 0 0 0 0 0 0 0 0 0 0 0 0 0 0 225 0 0 0 122 124 154 181 152 53 13 0 0 0 0 0 0 0 0 0 0 0 0 0 0 0 244 0 0 0 215 218 227 240 223 100 22 1 0 0 0 0 0 0 0 0 0 0 0 0 0 0 243 0 0 0 226 222 226 243 233 120 25 1 0 0 0 0 0 0 0 0 0 0 0 0 0 0 211 0 0 0 174 141 143 199 187 78 16 0 0 0 0 0 0 0 0 0 0 0 0 0 0 0 119 192 211 174 106 59 50 70 53 13 2 0 0 0 0 0 0 0 0 0 0 0 0 0 0 0 24 110 143 100 47 19 13 10 4 1 0 0 0 0 0 0 0 0 0 0 0 0 0 0 0 0 0 0 0 0 0 0 0 0 0 0 0 0 0 0 0 0 0 0 0 0 0 0 0 0 0 0 0 0 0 0 0 0 0 0 0 0 0 0 0 0 0 0 0 0 0 0 0 0 0 0 0 0 0 0 0 0 0 0 0 0 0 0 0 0 0 0 0 0 0 0 0 0 0 0 0 0 0 0 0 0 0 0 0 0 0 0 0 0 0 0 0 0 0 0 0 0 0 0 0 0 0 0 0 0 0 0 0 0 0 0 0 0 0 0 0 0 0 0 0 0 0 0 0 0 0 0 0 0 0 0 0 0 0 0 0 0 0 0 0 0 0 0 0 0 0 0 0 0 0 0 0 0 0 0 0 0 0 0 0 0 0 0 0 0 0 0 0 0 0 0 0 0 0 0 0 0 0 0 0 0 0 0 0 0 0 0 0 0 0 0 0 0 0 0 0 0 0 0 0 0 0 0 0 0 0 0 0 0 0 0 0 0 0 0 0 0 0 0 0 0 0 0 0 0 0 0 0 0 0 0 0 0 0 0 0 0 0 0 0 0 0 0 0 0 0 0 0 0 0 0 0 0 0 0 0 0 0 0 0 0 0 0 0 0 0 0 0 0 0 0 0 0 0 0 0 0 0 0 0 0 0 0 0 0 0 0 0 0 0 0 0 0 0 0 0 0 0 0 0 0 0 0 0 0 0 0 0 0 0 0 0 0 0 0 0 0 0 0 0 0 0 0 0 0 0 0 0 0 0 0 0 0 0 0 0 0 0 0 0 0 0 0 0 0 0 0 0 0 0 0 0 0 0 0 0 0 0 0 0 0 0 0 0 0 0 0 0 0 0 0 0 0 0 0 0 0 0 0 0 0 0 0 0 0 0 0 0 0 0 0 1 1 1 0 0 0 0 0 0 0 0 0 0 0 0 0 0 0 0 0 0 0 0 0 0 0 11 11 7 2 1 0 0 0 0 0 0 0 0 0 0 0 0 0 0 0 0 0 0 0 0 0 100 90 0 9 4 2 2 7 7 2 0 0 0 0 0 0 0 0 0 0 0 0 0 0 0 0 187 183 0 50 22 18 35 47 31 7 1 0 0 0 0 0 0 0 0 0 0 0 0 0 0 0 222 231 0 153 91 77 113 122 78 17 3 0 0 0 0 0 0 0 0 0 0 0 0 0 0 0 235 246 0 199 157 162 191 200 155 36 5 1 0 0 0 0 0 0 0 0 0 0 0 0 0 0 246 249 0 227 220 226 233 239 212 64 8 1 0 0 0 0 0 0 0 0 0 0 0 0 0 0 242 244 0 229 226 223 228 242 223 74 10 1 0 0 0 0 0 0 0 0 0 0 0 0 0 0 196 218 0 205 176 136 147 203 178 46 7 0 0 0 0 0 0 0 0 0 0 0 0 0 0 0 93 176 203 172 106 46 41 73 58 12 2 0 0 0 0 0 0 0 0 0 0 0 0 0 0 0 17 102 136 95 48 15 7 8 7 2 0 0 0 0 0 0 0 0 0 0 0 0 0 0 0 0 0 0 0 0 0 0 0 0 0 0 0 0 0 0 0 0 0 0 0 0 0 0 0 0 0 0 0 0 0 0 0 0 0 0 0 0 0 0 0 0 0 0 0 0 0 0 0 0 0 0 0 0 0 0 0 0 0 0 0 0 0 0 0 0 0 0 0 0 0 0 0 0 0 0 0 0 0 0 0 0 0 0 1 1 1 1 0 0 0 0 0 0 0 0 0 0 0 0 0 0 0 0 0 0 1 0 0 1 1 2 2 1 1 0 0 0 0 0 0 0 0 0 0 0 0 0 0 0 0 0 0 0 1 1 2 2 2 1 1 0 0 0 0 0 0 0 0 0 0 0 0 0 0 0 0 0 0 1 1 1 1 1 1 1 0 0 0 0 0 0 0 0 0 0 0 0 0 0 0 0 0 0 0 0 0 1 1 1 1 1 0 0 0 0 0 0 0 0 0 0 0 0 0 0 0 0 0 0 0 0 0 1 1 1 0 0 0 0 0 0 0 0 0 0 0 0 0 0 0 0 0 0 0 0 0 0 1 1 1 0 0 0 0 0 0 0 0 0 0 0 0 0 0 0 0 0 0 0 0 0 0 1 1 1 1 0 0 0 0 0 0 0 0 0 0 0 0 0 0 0 0 0 0 0 0 0 1 1 1 1 1 1 0 0 0 0 0 0 0 0 0 0 0 0 0 0 0 0 0 0 0 0 1 1 1 1 1 1 0 0 0 0 0 0 0 0 0 0 0 0 0 0 0 0 0 0 0 0 1 1 1 1 1 0 0 0 0 0 0 0 0 0 0 0 0 0 0 0 0 0 0 0 0 0 2 2 1 1 1 0 0 0 0 0 0 0 0 0 0 0 0 0 0 0 0 0 0 0 0 0 4 5 4 3 1 1 1 0 0 0 0 0 0 0 0 0 0 0 0 0 0 0 0 0 0 0 12 12 11 7 4 3 2 1 2 2 1 0 0 0 0 0 0 0 0 0 0 0 0 0 0 0 76 70 54 32 19 9 5 12 16 8 1 0 0 0 0 0 0 0 0 0 0 0 0 0 0 0 169 162 148 110 55 30 47 73 65 27 4 0 0 0 0 0 0 0 0 0 0 0 0 0 0 0 224 227 222 187 109 96 137 156 119 42 8 1 0 0 0 0 0 0 0 0 0 0 0 0 0 0 241 245 241 220 177 185 206 210 167 48 9 1 0 0 0 0 0 0 0 0 0 0 0 0 0 0 245 247 245 235 227 232 237 238 208 68 9 1 0 0 0 0 0 0 0 0 0 0 0 0 0 0 235 238 237 230 226 228 232 240 217 75 9 1 0 0 0 0 0 0 0 0 0 0 0 0 0 0 167 198 208 194 170 154 163 201 176 55 6 0 0 0 0 0 0 0 0 0 0 0 0 0 0 0 75 137 167 142 88 54 56 82 76 29 3 0 0 0 0 0 0 0 0 0 0 0 0 0 0 0 17 67 94 69 39 18 11 15 17 7 1 0 0 0 0 0 0 0 0 0 0 0 0 0 0 0 0 0 0 0 0 1 0 0 0 0 0 0 1 1 1 0 0 0 0 0 0 0 0 0 0 0 2 2 2 1 1 2 2 2 2 2 1 1 2 2 1 1 1 1 1 1 1 0 0 0 0 0 4 4 4 3 3 3 4 4 3 3 2 2 2 2 2 1 1 2 1 1 1 1 1 0 0 0 6 5 5 5 4 5 6 6 5 3 3 3 2 2 2 1 2 2 1 1 1 1 1 0 0 0 6 5 5 6 8 9 9 8 7 4 3 2 3 2 2 2 2 2 1 1 1 1 1 0 0 0 4 4 5 8 12 13 10 9 8 4 2 2 3 3 2 2 2 1 1 1 1 1 0 0 0 0 3 4 5 7 11 11 8 7 6 3 2 3 3 3 2 2 1 1 1 1 1 1 1 1 0 0 2 4 5 7 8 7 6 5 5 3 2 3 3 2 2 1 1 1 1 1 1 1 1 1 0 0 2 4 5 11 11 6 5 5 5 4 3 3 3 2 1 1 1 1 1 1 1 1 1 1 0 0 3 4 8 21 19 6 6 5 4 4 4 3 3 2 1 1 1 1 1 1 1 1 1 0 0 0 4 5 10 31 30 9 6 5 3 3 4 4 3 2 2 1 1 1 1 2 2 1 1 0 0 0 10 11 13 35 35 13 6 4 3 2 3 3 4 4 3 2 1 1 2 2 1 1 0 0 0 0 21 20 17 27 26 12 4 3 2 1 2 3 4 4 4 3 2 2 2 2 1 1 0 0 0 0 25 24 18 15 14 9 4 3 2 1 1 2 3 3 3 3 3 3 3 2 1 1 0 0 0 0 20 24 23 14 12 13 10 5 2 2 2 2 2 3 3 3 3 3 4 3 2 1 0 0 0 0 19 26 29 22 17 29 29 14 7 3 2 2 2 2 2 2 3 3 4 3 2 1 1 0 0 0 25 37 64 59 30 37 44 31 18 7 3 2 2 2 2 2 2 3 3 2 1 1 1 0 0 0 75 104 128 114 67 39 39 40 33 16 5 2 2 2 2 2 2 2 2 2 1 1 1 0 0 0 141 162 184 175 119 62 59 85 78 36 8 2 1 1 1 1 1 1 1 1 1 1 1 0 0 0 203 212 224 209 154 126 139 159 131 52 13 3 1 1 1 1 1 1 1 1 1 1 1 1 0 0 235 240 241 228 202 204 210 209 167 52 12 3 1 1 0 0 0 1 1 1 1 1 1 1 1 0 242 244 245 241 234 238 239 237 203 67 11 2 1 1 1 1 1 1 1 1 1 1 1 2 2 1 230 234 239 236 228 232 235 238 213 78 11 2 1 1 1 1 1 1 1 1 1 1 1 2 2 1 178 200 212 201 170 169 179 204 185 73 8 2 1 1 1 1 1 1 1 1 1 1 1 2 2 1 102 133 155 140 96 76 84 120 115 50 5 2 1 1 1 1 1 1 1 1 1 1 1 1 1 0 40 68 96 93 70 50 39 45 37 13 3 2 2 2 2 2 2 1 1 1 1 1 1 1 0 0 13 23 21 13 17 18 20 18 16 11 9 13 21 18 10 17 21 14 9 7 6 5 4 3 2 1 35 40 41 34 27 20 24 26 21 15 12 16 22 21 17 19 21 18 13 11 9 8 7 5 3 2 51 54 61 52 35 25 35 40 29 19 17 22 24 20 15 15 19 19 16 14 12 10 8 5 4 3 49 47 55 48 33 32 45 47 33 21 21 24 24 21 16 14 16 17 16 14 12 10 7 5 4 2 32 31 37 37 35 42 49 53 41 23 20 21 21 20 18 16 15 15 15 14 12 9 7 5 4 2 21 23 27 30 39 47 50 55 45 24 18 21 23 22 20 17 14 12 13 13 11 9 7 6 5 2 16 19 23 30 40 43 41 46 42 26 22 27 27 23 19 15 12 10 11 11 11 10 8 7 6 3 13 18 26 48 52 37 32 35 34 27 23 25 24 19 16 13 10 9 11 12 12 10 9 7 5 2 12 16 34 78 80 41 33 34 27 24 20 20 18 15 13 11 10 11 14 16 14 10 7 6 4 1 14 18 43 96 98 48 33 33 25 21 20 20 17 14 12 11 12 16 20 22 17 11 7 5 3 1 41 49 55 101 103 53 28 26 23 20 21 22 23 21 16 14 14 19 24 24 17 10 6 5 3 2 85 91 79 104 98 53 24 20 19 15 16 20 28 32 27 20 15 17 21 21 16 10 6 5 3 2 112 112 99 98 86 57 27 17 14 9 11 16 27 36 35 28 20 17 18 20 18 12 7 5 3 1 110 113 106 83 78 78 50 21 11 8 9 13 20 30 35 31 24 19 19 22 21 13 7 5 3 1 89 99 97 72 81 111 104 57 21 14 13 14 17 22 26 26 22 20 20 23 23 14 7 5 3 2 68 82 89 78 89 136 151 115 69 38 21 18 18 18 19 19 19 19 21 23 21 14 8 6 4 2 80 112 148 150 119 139 165 153 118 66 30 21 18 17 16 16 16 17 19 20 17 11 8 7 5 3 155 188 206 202 167 141 148 145 120 71 35 22 15 13 13 12 11 13 15 15 13 10 8 8 6 3 200 215 224 219 193 147 119 121 104 65 41 27 15 9 9 8 8 8 10 11 11 10 10 9 7 2 212 221 232 227 197 165 146 147 118 63 43 31 19 9 6 6 5 6 7 8 9 10 11 11 8 3 230 236 241 236 220 217 211 194 146 53 32 27 22 12 6 5 5 5 6 7 8 10 13 15 13 4 240 242 245 243 239 241 239 231 189 56 21 20 19 13 8 7 7 7 6 7 7 9 12 15 16 7 237 239 242 242 233 232 231 233 205 67 21 18 14 10 8 8 8 8 7 7 8 8 9 12 16 9 221 222 228 224 190 167 172 206 188 76 25 18 10 7 8 8 8 8 7 7 8 8 8 12 14 6 184 188 195 186 142 103 111 154 140 65 31 18 10 9 10 10 10 9 8 8 9 9 9 12 10 3 119 147 163 165 139 107 96 96 69 39 30 18 11 12 13 14 14 13 12 11 10 10 9 9 7 2 86 110 107 102 94 69 71 66 50 32 16 24 48 61 59 64 64 56 38 33 32 29 31 26 17 2 123 124 127 124 110 85 94 93 71 52 37 41 55 62 63 66 67 63 56 52 49 46 42 36 28 17 127 125 136 134 118 104 121 127 99 69 57 60 65 64 61 61 64 65 63 62 59 55 47 39 32 25 109 101 114 115 109 110 128 136 115 85 72 74 75 70 65 61 60 60 60 60 59 55 46 37 29 22 85 81 88 92 101 114 124 130 122 99 81 76 72 67 66 64 60 56 55 56 55 52 44 37 28 16 73 74 76 82 98 114 119 118 116 100 82 81 79 72 68 65 59 51 48 48 47 47 42 36 29 11 65 71 76 98 109 106 109 107 104 98 92 95 93 80 68 62 54 45 41 45 48 47 42 38 32 13 57 63 83 129 133 99 98 98 89 88 88 89 85 75 65 56 47 41 42 51 54 46 38 33 28 17 47 54 93 154 155 103 91 94 82 76 71 69 66 62 57 50 45 49 59 67 63 48 34 27 22 15 62 77 115 167 165 110 80 88 85 75 67 64 63 55 46 43 45 59 77 82 72 52 33 24 18 7 122 137 144 174 170 120 74 75 82 80 72 69 70 63 50 44 48 63 81 84 70 49 32 24 15 5 169 176 168 178 173 137 92 73 71 72 72 73 81 81 67 54 50 55 69 74 63 44 30 24 16 6 181 185 180 176 172 158 126 91 61 53 59 66 80 90 85 73 62 55 59 66 61 44 30 26 20 12 166 178 180 164 168 178 161 118 61 39 46 53 66 83 88 84 74 62 60 64 62 49 33 28 23 13 142 166 171 151 165 194 195 156 80 41 43 51 59 70 77 77 71 65 62 65 64 52 37 31 23 12 144 178 183 167 171 203 214 194 137 73 53 59 64 64 63 62 62 62 62 63 60 51 42 36 26 12 188 215 220 214 198 205 218 212 182 117 68 65 67 62 56 53 53 55 56 58 54 49 44 42 34 18 226 236 237 234 222 210 210 205 186 134 77 62 57 53 48 45 44 47 48 50 47 46 44 45 39 25 239 241 240 237 227 209 188 174 158 125 85 62 46 39 38 36 36 38 39 42 43 45 46 48 41 27 236 239 241 238 224 205 179 156 132 105 90 74 52 34 29 29 29 31 32 36 41 47 50 51 43 23 237 242 244 242 233 228 214 185 142 86 80 90 78 47 30 27 28 28 27 32 39 46 51 55 48 27 243 244 246 245 242 242 235 220 180 84 63 85 93 70 42 33 34 35 32 31 34 39 44 50 50 39 242 243 245 244 239 235 227 224 198 102 64 66 72 61 43 35 36 38 35 30 30 31 32 40 45 30 236 235 238 237 223 201 187 205 190 116 75 56 43 36 34 34 34 34 31 30 30 30 30 38 38 16 221 222 226 224 204 172 157 173 154 105 79 52 38 38 40 39 38 37 35 34 33 34 34 38 32 11 173 199 210 215 202 178 164 147 108 83 70 50 43 47 48 48 48 47 41 37 36 35 34 34 28 10 153 177 174 171 162 147 150 154 149 133 104 88 93 104 108 110 107 103 88 83 82 80 81 75 64 38 178 175 175 175 168 157 166 169 161 150 133 121 115 110 109 111 111 109 103 100 99 97 93 86 75 64 166 162 167 170 167 167 180 184 172 162 156 150 138 121 111 110 111 112 111 110 110 108 101 91 80 71 149 144 149 154 159 168 180 184 176 166 162 157 145 126 114 110 109 110 110 111 111 110 103 93 81 70 138 137 142 145 154 167 174 174 175 170 160 151 137 121 113 111 108 106 106 107 108 107 103 96 84 70 133 141 152 154 155 162 165 162 168 168 156 146 134 121 115 111 106 101 99 100 101 103 100 96 87 71 129 145 166 177 169 157 159 156 160 165 158 151 141 128 118 111 104 96 93 97 101 102 100 96 89 74 122 139 172 193 182 155 152 154 152 157 157 149 138 128 119 111 102 95 95 102 107 102 95 90 84 75 117 130 173 200 190 155 144 150 148 148 146 141 131 122 114 108 103 105 112 117 115 104 92 84 78 70 144 153 185 206 196 158 134 145 147 141 136 134 128 117 107 103 105 117 130 131 122 106 90 82 72 60 186 191 200 211 205 173 141 143 144 138 131 128 127 118 108 104 108 121 134 136 123 104 89 82 69 55 202 206 207 212 211 195 173 155 134 127 127 128 129 125 115 109 111 118 128 132 122 105 90 83 72 59 196 205 209 209 211 210 200 170 124 108 116 124 131 134 128 121 118 118 123 128 125 113 97 87 79 70 177 198 208 204 207 215 213 185 121 94 104 117 129 138 138 134 128 122 122 126 128 123 110 100 87 73 167 202 216 209 208 218 221 201 142 101 106 119 131 138 139 137 133 127 123 123 126 127 121 113 95 77 191 226 233 226 219 223 226 214 176 134 124 130 136 138 135 133 131 128 124 120 118 121 123 121 106 87 226 242 243 239 232 228 228 220 199 165 140 136 138 135 129 125 124 124 121 115 110 111 116 122 116 100 242 246 246 243 238 232 227 218 202 175 145 133 129 124 117 114 114 115 114 110 104 103 106 116 118 109 245 247 246 243 239 232 223 207 188 168 145 129 117 110 105 102 103 105 104 102 99 100 102 109 112 107 244 246 246 243 238 231 219 196 170 151 144 137 124 114 106 97 96 98 96 94 94 98 99 102 104 97 244 246 246 245 240 237 227 209 181 148 145 157 157 145 128 106 97 100 99 92 89 93 95 97 98 91 244 246 247 246 242 241 235 221 196 154 144 163 177 172 154 129 113 114 114 102 88 84 87 91 94 93 243 245 246 244 240 237 231 219 200 167 154 156 160 157 146 129 116 118 118 106 87 79 80 85 88 80 237 240 241 240 234 226 215 209 197 178 165 150 132 119 114 109 106 111 112 101 88 85 86 90 86 70 225 230 233 233 227 214 200 190 177 169 162 147 129 114 107 105 105 107 107 101 95 94 96 97 88 71 187 212 222 227 222 212 202 181 153 149 146 138 131 123 118 114 109 107 104 101 100 101 100 98 87 57 110 131 127 122 118 116 121 129 131 121 100 80 72 69 71 74 74 71 66 62 62 62 60 57 53 36 127 123 121 119 117 119 126 133 135 130 119 105 91 78 73 75 75 74 70 67 68 68 66 61 56 52 111 109 109 111 113 120 131 135 134 136 136 129 112 89 75 74 76 76 75 74 75 75 72 66 58 54 102 101 103 103 108 120 130 129 128 132 134 129 113 90 76 74 75 76 77 76 76 76 74 69 61 54 98 101 105 105 107 118 124 121 123 127 126 118 102 85 75 73 73 74 75 75 75 76 75 73 66 59 96 107 122 121 112 113 116 115 121 124 118 107 93 83 77 73 71 71 72 73 74 75 75 74 69 64 95 113 138 140 122 111 111 113 118 122 116 105 93 85 81 76 71 69 69 71 73 75 75 73 70 67 92 110 142 150 131 111 107 111 116 120 117 107 95 87 82 78 74 70 70 72 75 76 74 71 67 64 92 104 142 155 136 111 102 108 112 115 115 109 98 88 82 79 77 77 79 79 79 76 72 68 63 59 115 118 147 160 145 114 98 105 107 106 105 104 97 88 82 80 81 85 89 87 82 75 70 67 61 55 142 142 153 161 155 128 109 111 103 96 94 94 91 86 83 82 84 89 94 92 84 74 70 67 59 52 146 150 155 159 159 147 137 124 99 85 87 89 89 86 83 83 86 90 94 94 89 81 73 68 61 55 131 145 154 155 156 159 156 131 91 75 80 87 92 92 89 86 86 90 94 97 96 91 81 72 66 62 115 139 156 153 152 160 162 135 86 70 76 88 97 101 99 95 91 90 93 96 100 100 93 84 73 64 116 154 176 170 160 164 167 145 102 81 83 93 103 106 105 102 98 94 92 93 98 103 102 96 81 69 141 185 200 193 179 174 171 155 128 109 102 103 107 108 107 104 101 98 94 89 89 95 101 103 91 80 175 205 210 205 194 184 175 160 143 128 115 108 107 106 103 100 99 97 94 86 82 84 92 101 98 91 198 212 212 208 200 189 178 161 143 130 117 106 101 97 93 90 91 91 90 85 78 77 81 91 97 95 208 214 212 208 200 191 179 158 134 121 114 104 95 90 84 81 83 84 83 79 75 73 75 82 89 91 209 213 212 207 199 192 179 155 125 110 109 107 102 98 90 80 79 80 78 72 69 69 70 72 79 83 207 211 212 207 200 194 184 164 138 116 111 118 125 126 114 92 81 85 84 73 65 64 64 65 71 75 204 209 211 207 199 194 186 169 146 123 117 128 141 146 137 114 95 96 97 85 68 60 60 61 66 69 200 205 207 202 193 187 178 160 141 129 129 130 129 131 128 113 98 99 101 90 70 61 60 61 63 63 188 195 195 190 183 175 165 150 138 137 138 129 112 100 97 91 88 93 96 85 71 67 68 69 66 63 170 176 179 178 173 164 153 136 126 132 135 128 112 94 86 85 85 88 89 83 76 76 78 78 71 65 127 154 163 169 165 157 149 129 112 117 121 119 111 100 94 90 84 82 82 81 81 83 83 80 72 51 0 0 0 0 0 0 0 0 0 0 0 0 0 0 0 0 0 0 0 0 0 0 0 0 0 0 0 0 0 0 0 0 0 0 0 0 0 0 0 0 0 0 0 0 0 0 0 0 0 0 0 0 0 0 0 0 0 0 0 0 0 0 0 0 0 0 0 0 0 0 0 0 0 0 0 0 0 0 0 0 0 0 0 0 0 0 0 0 0 0 0 0 0 0 0 0 0 0 0 0 0 0 0 0 0 0 0 0 0 0 0 0 0 0 0 0 0 0 0 0 0 0 0 0 0 0 0 0 0 0 0 0 0 0 0 0 0 0 0 0 0 0 0 0 0 0 0 0 0 0 0 0 0 0 0 0 0 0 0 0 0 0 0 0 0 0 0 0 0 0 0 0 0 0 0 0 0 0 0 0 0 0 0 0 0 0 0 0 0 0 0 0 0 0 0 0 0 0 0 0 0 0 0 0 0 0 0 0 0 0 0 0 0 0 0 0 0 0 0 0 0 0 0 0 0 0 0 0 0 0 0 0 0 0 0 0 0 0 0 0 0 0 0 0 0 0 0 0 0 0 0 0 0 0 0 0 0 0 0 0 0 0 0 0 0 0 0 0 0 0 0 0 0 0 0 0 0 0 0 0 0 0 0 0 0 0 0 0 0 0 0 0 0 0 0 0 0 0 0 0 0 0 0 0 0 0 0 0 0 0 0 0 0 0 0 0 0 0 0 0 0 0 0 0 0 0 0 0 0 0 0 0 0 0 0 0 0 0 0 0 0 0 0 0 0 0 0 0 0 0 0 0 0 0 0 0 0 0 0 0 0 0 0 0 0 0 0 0 0 0 0 0 0 0 0 0 0 0 0 0 0 0 0 0 0 0 0 0 0 0 0 0 0 0 0 0 0 0 0 0 0 0 0 0 0 0 0 0 0 0 0 0 0 0 0 0 0 0 0 0 0 0 0 0 0 0 0 0 0 0 0 0 0 0 0 0 0 0 0 0 0 0 0 0 0 0 0 0 0 0 0 0 0 0 0 0 0 0 0 0 0 0 0 0 0 0 0 0 0 0 0 0 0 0 0 0 0 0 0 0 0 0 0 0 0 0 0 0 0 0 0 0 0 0 0 0 0 0 0 0 0 0 0 0 0 0 0 0 0 0 0 0 0 0 0 0 0 0 0 0 0 0 0 0 0 0 0 0 0 0 0 0 0 0 0 0 0 0 0 0 0 0 0 0 0 0 0 0 0 0 0 0 0 0 0 0 0 0 0 0 0 0 0 0 0 0 0 0 0 0 0 0 0 0 0 0 0 0 0 0 0 0 0 0 0 0 0 0 0 0 0 0 0 0 0 0 0 0 0 0 0 0 0 0 0 0 0 0 0 0 0 0 0 0 0 0 0 0 0 0 0 0 0 0 0 0 0 0 0 0 0 0 0 0 0 0 0 0 0 0 0 0 0 0 0 0 0 0 0 0 0 0 0 0 0 0 0 0 0 0 0 0 0 0 0 0 0 0 0 0 0 0 0 0 0 0 
</DataArray>
<DataArray Name="HRRPUV" NumberOfComponents="1" type="UInt8" format="ascii">