<?xml version="1.0"?>
<VTKFile type="RectilinearGrid" version="1.0" byte_order="LittleEndian" header_type="UInt64">
<RectilinearGrid WholeExtent="25 50 0 25 0 15">
<Piece Extent="25 50 0 25 0 15">
<Coordinates>
<DataArray type="Float64" Name="Array X-Axis" format="ascii" RangeMin="15.0" RangeMax="30.0">
15.0 15.6 16.2 16.8 17.4 18.0 18.6 19.2 19.8 20.4 21.0 21.6 22.2 22.8 23.4 24.0 24.6 25.2 25.8 26.4 27.0 27.6 28.2 28.8 29.4 30.0 
</DataArray>
<DataArray type="Float64" Name="Array Y-Axis" format="ascii" RangeMin="0.0" RangeMax="15.0">
0.0 0.6 1.2 1.8 2.4 3.0 3.6 4.2 4.8 5.4 6.0 6.6 7.2 7.8 8.4 9.0 9.6 10.2 10.8 11.4 12.0 12.6 13.2 13.8 14.4 15.0 
</DataArray>
<DataArray type="Float64" Name="Array Z-Axis" format="ascii" RangeMin="0.0" RangeMax="9.0">
0.0 0.6 1.2 1.8 2.4 3.0 3.6 4.2 4.8 5.4 6.0 6.6 7.2 7.8 8.4 9.0 
</DataArray>
</Coordinates>
<PointData>
<DataArray Name="SOOT DENSITY" NumberOfComponents="1" type="UInt8" format="ascii">
0 0 0 0 0 0 0 0 0 0 0 0 0 0 0 0 0 0 0 0 0 0 0 0 0 0 0 0 0 0 0 0 0 0 0 0 0 0 0 0 0 0 0 0 0 0 0 0 0 0 0 0 0 0 0 0 0 0 0 0 0 0 0 0 0 0 0 0 0 0 0 0 0 0 0 0 0 0 0 0 0 0 0 0 0 0 0 0 0 0 0 0 0 0 0 0 0 0 0 0 0 0 0 0 0 0 0 0 0 0 0 0 0 0 0 0 0 0 0 0 0 0 0 0 0 0 0 0 0 0 0 0 0 0 0 0 0 0 0 0 0 0 0 0 0 0 0 0 0 0 0 0 0 0 0 0 0 0 0 0 0 0 0 0 0 0 0 0 0 0 0 0 0 0 0 0 0 0 0 0 0 0 0 0 0 0 0 0 0 0 0 0 0 0 0 0 0 0 0 0 0 0 0 0 0 0 0 0 0 0 0 0 0 0 0 0 0 0 0 0 0 0 0 0 0 0 0 0 0 0 0 0 0 0 0 0 0 0 0 0 0 0 0 0 0 0 0 0 0 0 0 0 0 0 0 0 0 0 0 0 0 0 0 0 0 0 0 0 0 0 0 0 0 0 0 0 0 0 0 0 0 0 0 0 0 0 0 0 0 0 0 0 0 0 0 0 0 0 0 0 0 0 0 0 0 0 0 0 0 0 0 0 0 0 0 0 0 0 0 0 0 0 0 0 0 0 0 0 0 0 0 0 0 0 0 0 0 0 0 0 0 0 0 0 0 0 0 0 0 0 0 0 0 0 0 0 0 0 0 0 0 0 0 0 0 0 0 0 0 0 0 0 0 0 0 0 0 0 0 0 0 0 0 0 0 0 0 0 0 0 0 0 0 0 0 0 0 0 0 0 0 0 0 0 0 0 0 0 0 0 0 0 0 0 0 0 0 0 0 0 0 0 0 0 0 0 0 0 0 0 0 0 0 0 0 0 0 0 0 0 0 0 0 0 0 0 0 0 0 0 0 0 0 0 0 0 0 0 0 0 0 0 0 0 0 0 0 0 0 0 0 2 3 2 2 1 0 0 0 0 0 0 0 0 0 0 0 0 0 0 0 0 0 0 0 0 1 8 13 11 10 5 1 0 0 0 0 0 0 0 0 0 0 0 0 0 0 0 0 0 0 0 2 13 16 9 8 7 3 0 0 0 0 0 0 0 0 0 0 0 0 0 0 0 0 0 1 3 6 19 14 0 0 6 7 1 0 0 0 0 0 0 0 0 0 0 0 0 0 0 0 0 3 6 11 39 32 0 0 5 5 1 0 0 0 0 0 0 0 0 0 0 0 0 0 0 0 0 2 4 8 32 31 7 5 3 2 0 0 0 0 0 0 0 0 0 0 0 0 0 0 0 0 0 0 1 2 5 9 9 5 2 0 0 0 0 0 0 0 0 0 0 0 0 0 0 0 0 0 0 0 0 0 0 1 2 1 0 0 0 0 0 0 0 0 0 0 0 0 0 0 0 0 0 0 0 0 0 0 0 0 0 0 0 0 0 0 0 0 0 0 0 0 0 0 0 0 0 0 0 0 0 0 0 0 0 0 0 0 0 0 0 0 0 0 0 0 0 0 0 0 0 0 0 0 0 0 0 0 0 0 0 0 0 0 0 0 0 0 0 0 0 0 0 0 0 0 0 0 0 0 0 0 0 0 0 0 0 0 0 0 0 0 0 0 0 0 0 0 0 0 0 0 0 0 0 0 0 0 0 0 0 0 0 0 0 0 0 0 0 0 0 0 0 0 0 0 0 0 0 0 0 0 0 0 0 0 0 0 0 0 0 0 0 0 0 0 0 0 0 0 0 0 0 0 0 0 0 0 0 0 0 0 0 0 0 0 0 0 0 0 0 0 0 0 0 0 0 0 0 0 0 0 0 0 0 0 0 0 0 0 0 0 0 0 0 0 0 0 0 0 0 0 0 0 0 0 0 0 0 0 0 0 0 0 0 0 0 0 0 0 0 0 0 0 0 0 0 0 0 0 0 0 0 0 0 0 0 0 0 0 0 0 0 0 0 0 0 0 0 0 0 0 0 0 0 0 0 0 0 0 0 0 0 0 0 0 0 0 0 0 0 0 0 0 0 0 0 0 0 0 0 0 0 0 0 0 0 0 0 0 0 0 0 0 0 0 0 0 0 0 0 0 0 0 0 0 0 0 0 0 0 0 0 0 0 0 0 0 0 0 0 0 0 0 0 0 0 0 0 0 0 0 0 0 0 0 0 0 0 0 0 0 0 0 0 0 0 0 0 0 0 0 0 0 0 0 0 0 0 0 0 0 0 0 0 0 0 0 0 0 0 0 0 0 0 0 0 0 0 0 0 0 0 0 0 0 0 0 0 0 0 0 0 0 0 0 0 0 0 0 0 0 0 0 0 0 0 0 0 0 0 0 0 0 0 0 0 0 0 0 0 0 0 0 0 0 1 2 2 0 0 0 0 0 0 0 0 0 0 0 0 0 0 0 0 0 0 0 0 0 2 3 5 12 10 3 0 0 0 0 0 0 0 0 0 0 0 0 0 0 0 0 0 0 0 1 21 32 21 20 16 5 0 0 0 0 0 0 0 0 0 0 0 0 0 0 0 0 0 0 1 9 51 80 64 42 24 7 1 0 0 0 0 0 0 0 0 0 0 0 0 0 0 0 0 1 4 16 60 153 189 158 84 28 8 0 0 0 0 0 0 0 0 0 0 0 0 0 0 0 0 7 13 23 71 185 230 212 120 48 16 1 0 0 0 0 0 0 0 0 0 0 0 0 0 0 0 19 23 34 99 198 231 209 106 37 11 1 0 0 0 0 0 0 0 0 0 0 0 0 0 0 0 14 17 26 75 162 191 148 61 15 2 0 0 0 0 0 0 0 0 0 0 0 0 0 0 0 0 1 4 7 17 40 50 32 13 4 0 0 0 0 0 0 0 0 0 0 0 0 0 0 0 0 0 0 0 1 3 7 8 4 1 0 0 0 0 0 0 0 0 0 0 0 0 0 0 0 0 0 0 0 0 0 0 0 0 0 0 0 0 0 0 0 0 0 0 0 0 0 0 0 0 0 0 0 0 0 0 0 0 0 0 0 0 0 0 0 0 0 0 0 0 0 0 0 0 0 0 0 0 0 0 0 0 0 0 0 0 0 0 0 0 0 0 0 0 0 0 0 0 0 0 0 0 0 0 0 0 0 0 0 0 0 0 0 0 0 0 0 0 0 0 0 0 0 0 0 0 0 0 0 0 0 0 0 0 0 0 0 0 0 0 0 0 0 0 0 0 0 0 0 0 0 0 0 0 0 0 0 0 0 0 0 0 0 0 0 0 0 0 0 0 0 0 0 0 0 0 0 0 0 0 0 0 0 0 0 0 0 0 0 0 0 0 0 0 0 0 0 0 0 0 0 0 0 0 0 0 0 0 0 0 0 0 0 0 0 0 0 0 0 0 0 0 0 0 0 0 0 0 0 0 0 0 0 0 0 0 0 0 0 0 0 0 0 0 0 0 0 0 0 0 0 0 0 0 0 0 0 0 0 0 0 0 0 0 0 0 0 0 0 0 0 0 0 0 0 0 0 0 0 0 0 0 0 0 0 0 0 0 0 0 0 0 0 0 0 0 0 0 0 0 0 0 0 0 0 0 0 0 0 0 0 0 0 0 0 0 0 0 0 0 0 0 0 0 0 0 0 0 0 0 0 0 0 0 0 0 0 0 0 0 0 0 0 0 0 0 0 0 0 0 0 0 0 0 0 0 0 0 0 0 0 0 0 0 0 0 0 0 0 0 0 0 0 0 0 0 0 0 0 0 0 0 0 0 0 0 0 0 0 0 0 0 0 0 0 0 0 0 0 0 0 0 0 0 0 0 0 0 0 0 0 0 0 0 0 0 0 0 0 0 0 0 0 0 1 1 0 0 0 0 0 0 0 0 0 0 0 0 0 0 0 0 0 0 0 0 0 1 1 5 25 22 1 0 0 0 0 0 0 0 0 0 0 0 0 0 0 0 0 0 0 0 1 7 10 24 71 76 27 1 0 0 0 0 0 0 0 0 0 0 0 0 0 0 0 0 0 1 16 52 65 61 86 90 43 3 0 0 0 0 0 0 0 0 0 0 0 0 0 0 0 0 1 6 36 102 139 122 112 110 60 9 0 0 0 0 0 0 0 0 0 0 0 0 0 0 0 0 9 25 58 134 220 236 226 209 168 77 4 0 0 0 0 0 0 0 0 0 0 0 0 0 0 0 26 42 82 184 246 252 251 237 201 117 8 0 0 0 0 0 0 0 0 0 0 0 0 0 0 0 39 50 102 214 250 253 251 225 150 73 5 0 0 0 0 0 0 0 0 0 0 0 0 0 0 0 28 41 81 188 240 245 225 154 57 14 1 0 0 0 0 0 0 0 0 0 0 0 0 0 0 0 5 14 31 96 139 121 70 32 13 2 0 0 0 0 0 0 0 0 0 0 0 0 0 0 0 0 0 1 11 30 33 19 11 6 2 0 0 0 0 0 0 0 0 0 0 0 0 0 0 0 0 0 0 0 0 0 0 0 0 0 0 0 0 0 0 0 0 0 0 0 0 0 0 0 0 0 0 0 0 0 0 0 0 0 0 0 0 0 0 0 0 0 0 0 0 0 0 0 0 0 0 0 0 0 0 0 0 0 0 0 0 0 0 0 0 0 0 0 0 0 0 0 0 0 0 0 0 0 0 0 0 0 0 0 0 0 0 0 0 0 0 0 0 0 0 0 0 0 0 0 0 0 0 0 0 0 0 0 0 0 0 0 0 0 0 0 0 0 0 0 0 0 0 0 0 0 0 0 0 0 0 0 0 0 0 0 0 0 0 0 0 0 0 0 0 0 0 0 0 0 0 0 0 0 0 0 0 0 0 0 0 0 0 0 0 0 0 0 0 0 0 0 0 0 0 0 0 0 0 0 0 0 0 0 0 0 0 0 0 0 0 0 0 0 0 0 0 0 0 0 0 0 0 0 0 0 0 0 0 0 0 0 0 0 0 0 0 0 0 0 0 0 0 0 0 0 0 0 0 0 0 0 0 0 0 0 0 0 0 0 0 0 0 0 0 0 0 0 0 0 0 0 0 0 0 0 0 0 0 0 0 0 0 0 0 0 0 0 0 0 0 0 0 0 0 0 0 0 0 0 0 0 0 0 0 0 0 0 0 0 0 0 0 0 0 0 0 0 0 0 0 0 0 0 0 0 0 0 0 0 0 0 0 0 0 0 0 0 0 0 0 0 0 0 0 0 0 0 0 0 0 0 0 0 0 0 0 0 0 0 0 0 0 0 0 0 0 0 0 0 0 0 0 0 0 0 0 0 0 0 0 0 0 0 0 0 0 0 0 0 0 0 0 0 0 0 0 0 0 0 0 0 0 0 0 0 0 0 0 0 0 0 0 0 0 0 0 0 1 1 0 0 0 0 0 0 0 0 0 0 0 0 0 0 0 0 0 0 0 0 2 3 2 7 34 31 2 0 0 0 0 0 0 0 0 0 0 0 0 0 0 0 0 0 0 2 14 21 15 0 134 122 47 3 0 0 0 0 0 0 0 0 0 0 0 0 0 0 0 0 5 23 60 73 66 0 171 159 93 20 1 0 0 0 0 0 0 0 0 0 0 0 0 0 0 0 17 44 104 142 153 0 187 184 130 36 3 0 0 0 0 0 0 0 0 0 0 0 0 0 0 0 53 82 161 218 237 0 239 240 216 102 8 0 0 0 0 0 0 0 0 0 0 0 0 0 0 0 92 130 207 247 253 0 253 252 243 173 18 0 0 0 0 0 0 0 0 0 0 0 0 0 0 0 101 133 216 251 254 0 253 249 227 146 15 0 0 0 0 0 0 0 0 0 0 0 0 0 0 0 70 95 173 244 251 0 229 201 133 43 4 0 0 0 0 0 0 0 0 0 0 0 0 0 0 0 21 41 78 178 201 155 98 83 60 13 1 0 0 0 0 0 0 0 0 0 0 0 0 0 0 0 1 6 37 72 61 30 22 24 15 1 0 0 0 0 0 0 0 0 0 0 0 0 0 0 0 0 0 0 0 0 0 0 0 0 0 0 0 0 0 0 0 0 0 0 0 0 0 0 0 0 0 0 0 0 0 0 0 0 0 0 0 0 0 0 0 0 0 0 0 0 0 0 0 0 0 0 0 0 0 0 0 0 0 0 0 0 0 0 0 0 0 0 0 0 0 0 0 0 0 0 0 0 0 0 0 0 0 0 0 0 0 0 0 0 0 0 0 0 0 0 0 0 0 0 0 0 0 0 0 0 0 0 0 0 0 0 0 0 0 0 0 0 0 0 0 0 0 0 0 0 0 0 0 0 0 0 0 0 0 0 0 0 0 0 0 0 0 0 0 0 0 0 0 0 0 0 0 0 0 0 0 0 0 0 0 0 0 0 0 0 0 0 0 0 0 0 0 0 0 0 0 0 0 0 0 0 0 0 0 0 0 0 0 0 0 0 0 0 0 0 0 0 0 0 0 0 0 0 0 0 0 0 0 0 0 0 0 0 0 0 0 0 0 0 0 0 0 0 0 0 0 0 0 0 0 0 0 0 0 0 0 0 0 0 0 0 0 0 0 0 0 0 0 0 0 0 0 0 0 0 0 0 0 0 0 0 0 0 0 0 0 0 0 0 0 0 0 0 0 0 0 0 0 0 0 0 0 0 0 0 0 0 0 0 0 0 0 0 0 0 0 0 0 0 0 0 0 0 0 0 0 0 0 0 0 0 0 0 0 0 0 0 0 0 0 0 0 0 0 0 0 0 0 0 0 0 0 0 0 0 0 0 0 0 0 0 0 0 0 0 0 0 0 0 0 0 0 0 0 0 0 0 0 0 0 0 0 0 0 0 0 0 0 0 0 0 0 0 0 0 0 0 0 0 0 0 0 0 0 0 0 0 0 0 0 0 0 1 1 1 0 0 0 0 0 0 0 0 0 0 0 0 0 0 0 0 0 0 0 0 0 0 1 3 5 6 3 3 15 15 2 0 0 0 0 0 0 0 0 0 0 0 0 0 0 0 0 0 9 17 30 26 0 0 0 107 46 5 0 0 0 0 0 0 0 0 0 0 0 0 0 0 0 0 37 67 92 73 0 0 0 183 131 44 2 0 0 0 0 0 0 0 0 0 0 0 0 0 0 0 83 133 170 166 0 0 0 219 184 72 6 0 0 0 0 0 0 0 0 0 0 0 0 0 0 0 120 187 233 244 0 0 0 245 219 81 10 0 0 0 0 0 0 0 0 0 0 0 0 0 0 0 141 212 248 253 0 0 0 252 244 145 18 1 0 0 0 0 0 0 0 0 0 0 0 0 0 0 144 203 248 254 0 0 0 251 239 137 15 1 0 0 0 0 0 0 0 0 0 0 0 0 0 0 101 155 229 251 0 0 0 217 180 51 5 0 0 0 0 0 0 0 0 0 0 0 0 0 0 0 32 92 162 214 207 141 109 126 99 19 1 0 0 0 0 0 0 0 0 0 0 0 0 0 0 0 3 34 86 104 71 32 26 34 22 2 0 0 0 0 0 0 0 0 0 0 0 0 0 0 0 0 0 0 0 0 0 0 0 0 0 0 0 0 0 0 0 0 0 0 0 0 0 0 0 0 0 0 0 0 0 0 0 0 0 0 0 0 0 0 0 0 0 0 0 0 0 0 0 0 0 0 0 0 0 0 0 0 0 0 0 0 0 0 0 0 0 0 0 0 0 0 0 0 0 0 0 0 0 0 0 0 0 0 0 0 0 0 0 0 0 0 0 0 0 0 0 0 0 0 0 0 0 0 0 0 0 0 0 0 0 0 0 0 0 0 0 0 0 0 0 0 0 0 0 0 0 0 0 0 0 0 0 0 0 0 0 0 0 0 0 0 0 0 0 0 0 0 0 0 0 0 0 0 0 0 0 0 0 0 0 0 0 0 0 0 0 0 0 0 0 0 0 0 0 0 0 0 0 0 0 0 0 0 0 0 0 0 0 0 0 0 0 0 0 0 0 0 0 0 0 0 0 0 0 0 0 0 0 0 0 0 0 0 0 0 0 0 0 0 0 0 0 0 0 0 0 0 0 0 0 0 0 0 0 0 0 0 0 0 0 0 0 0 0 0 0 0 0 0 0 0 0 0 0 0 0 0 0 0 0 0 0 0 0 0 0 0 0 0 0 0 0 0 0 0 0 0 0 0 0 0 0 0 0 0 0 0 0 0 0 0 0 0 0 0 0 0 0 0 0 0 0 0 0 0 0 0 0 0 0 0 0 0 0 0 0 0 0 0 0 0 0 0 0 0 0 0 0 0 0 0 0 0 0 0 0 0 0 0 0 0 0 0 0 0 0 0 0 0 0 0 0 0 0 0 0 0 0 0 0 0 0 0 0 0 0 0 0 0 0 0 0 0 0 0 0 0 0 0 0 0 0 0 0 0 0 0 0 0 0 0 1 3 4 2 1 0 0 0 0 0 0 0 0 0 0 0 0 0 0 0 0 0 0 0 0 0 18 24 15 8 3 2 5 5 1 0 0 0 0 0 0 0 0 0 0 0 0 0 0 0 0 0 78 74 45 0 0 0 71 66 37 4 0 0 0 0 0 0 0 0 0 0 0 0 0 0 0 0 141 135 104 0 0 0 193 190 151 44 1 0 0 0 0 0 0 0 0 0 0 0 0 0 0 0 179 205 201 0 0 0 237 235 205 75 5 0 0 0 0 0 0 0 0 0 0 0 0 0 0 0 185 237 248 0 0 0 250 247 221 86 16 1 0 0 0 0 0 0 0 0 0 0 0 0 0 0 172 242 253 0 0 0 253 252 239 110 24 4 0 0 0 0 0 0 0 0 0 0 0 0 0 0 157 233 252 0 0 0 251 251 235 91 16 3 0 0 0 0 0 0 0 0 0 0 0 0 0 0 117 200 243 0 0 0 200 219 185 38 5 1 0 0 0 0 0 0 0 0 0 0 0 0 0 0 51 142 202 217 185 112 97 118 86 13 1 0 0 0 0 0 0 0 0 0 0 0 0 0 0 0 13 61 111 107 60 27 22 25 15 2 0 0 0 0 0 0 0 0 0 0 0 0 0 0 0 0 0 0 0 0 0 0 0 0 0 0 0 0 0 0 0 0 0 0 0 0 0 0 0 0 0 0 0 0 0 0 0 0 0 0 0 0 0 0 0 0 0 0 0 0 0 0 0 0 0 0 0 0 0 0 0 0 0 0 0 0 0 0 0 0 0 0 0 0 0 0 0 0 0 0 0 0 0 0 0 0 0 0 0 0 0 0 0 0 0 0 0 0 0 0 0 0 0 0 0 0 0 0 0 0 0 0 0 0 0 0 0 0 0 0 0 0 0 0 0 0 0 0 0 0 0 0 0 0 0 0 0 0 0 0 0 0 0 0 0 0 0 0 0 0 0 0 0 0 0 0 0 0 0 0 0 0 0 0 0 0 0 0 0 0 0 0 0 0 0 0 0 0 0 0 0 0 0 0 0 0 0 0 0 0 0 0 0 0 0 0 0 0 0 0 0 0 0 0 0 0 0 0 0 0 0 0 0 0 0 0 0 0 0 0 0 0 0 0 0 0 0 0 0 0 0 0 0 0 0 0 0 0 0 0 0 0 0 0 0 0 0 0 0 0 0 0 0 0 0 0 0 0 0 0 0 0 0 0 0 0 0 0 0 0 0 0 0 0 0 0 0 0 0 0 0 0 0 0 0 0 0 0 0 0 0 0 0 0 0 0 0 0 0 0 0 0 0 0 0 0 0 0 0 0 0 0 0 0 0 0 0 0 0 0 0 0 0 0 0 0 0 0 0 0 0 0 0 0 0 0 0 0 0 0 0 0 0 0 0 0 0 0 0 0 0 0 0 0 0 0 0 0 0 0 0 0 0 0 0 0 0 0 0 0 0 0 0 0 0 0 0 0 0 0 0 0 0 0 0 0 0 0 0 0 0 0 0 0 0 0 2 7 8 3 1 0 0 0 0 0 0 0 0 0 0 0 0 0 0 0 0 0 0 0 0 0 32 43 29 16 6 2 2 1 0 0 0 0 0 0 0 0 0 0 0 0 0 0 0 0 0 0 107 103 0 0 0 42 30 33 23 2 0 0 0 0 0 0 0 0 0 0 0 0 0 0 0 0 181 162 0 0 0 198 180 184 147 30 1 0 0 0 0 0 0 0 0 0 0 0 0 0 0 0 218 225 0 0 0 249 244 236 194 51 3 0 0 0 0 0 0 0 0 0 0 0 0 0 0 0 228 247 0 0 0 253 252 244 201 80 19 2 0 0 0 0 0 0 0 0 0 0 0 0 0 0 217 249 0 0 0 254 253 250 223 109 33 7 1 0 0 0 0 0 0 0 0 0 0 0 0 0 189 243 0 0 0 251 250 248 220 87 25 7 1 0 0 0 0 0 0 0 0 0 0 0 0 0 134 215 0 0 0 199 195 210 173 50 10 2 0 0 0 0 0 0 0 0 0 0 0 0 0 0 58 148 198 191 148 107 90 106 82 23 2 0 0 0 0 0 0 0 0 0 0 0 0 0 0 0 19 61 99 85 42 28 23 22 14 3 0 0 0 0 0 0 0 0 0 0 0 0 0 0 0 0 0 0 0 0 0 0 0 0 0 0 0 0 0 0 0 0 0 0 0 0 0 0 0 0 0 0 0 0 0 0 0 0 0 0 0 0 0 0 0 0 0 0 0 0 0 0 0 0 0 0 0 0 0 0 0 0 0 0 0 0 0 0 0 0 0 0 0 0 0 0 0 0 0 0 0 0 0 0 0 0 0 0 0 0 0 0 0 0 0 0 0 0 0 0 0 0 0 0 0 0 0 0 0 0 0 0 0 0 0 0 0 0 0 0 0 0 0 0 0 0 0 0 0 0 0 0 0 0 0 0 0 0 0 0 0 0 0 0 0 0 0 0 0 0 0 0 0 0 0 0 0 0 0 0 0 0 0 0 0 0 0 0 0 0 0 0 0 0 0 0 0 0 0 0 0 0 0 0 0 0 0 0 0 0 0 0 0 0 0 0 0 0 0 0 0 0 0 0 0 0 0 0 0 0 0 0 0 0 0 0 0 0 0 0 0 0 0 0 0 0 0 0 0 0 0 0 0 0 0 0 0 0 0 0 0 0 0 0 0 0 0 0 0 0 0 0 0 0 0 0 0 0 0 0 0 0 0 0 0 0 0 0 0 0 0 0 0 0 0 0 0 0 0 0 0 0 0 0 0 0 0 0 0 0 0 0 0 0 0 0 0 0 0 0 0 0 0 0 0 0 0 0 0 0 0 0 0 0 0 0 0 0 0 0 0 0 0 0 0 0 0 0 0 0 0 0 0 0 0 0 0 0 0 0 0 0 0 0 0 0 0 0 0 0 0 0 0 0 0 0 0 0 0 0 0 0 0 0 0 0 0 0 0 0 0 0 0 0 0 0 0 0 0 0 0 0 0 0 0 0 0 0 0 0 0 0 0 0 0 0 10 17 10 3 0 0 0 0 0 0 0 0 0 0 0 0 0 0 0 0 0 0 0 0 0 0 51 56 38 19 7 1 0 0 0 0 0 0 0 0 0 0 0 0 0 0 0 0 0 0 0 0 110 0 0 0 33 17 8 16 13 1 0 0 0 0 0 0 0 0 0 0 0 0 0 0 0 0 183 0 0 0 174 152 126 147 111 15 0 0 0 0 0 0 0 0 0 0 0 0 0 0 0 0 229 0 0 0 247 247 241 220 155 38 4 0 0 0 0 0 0 0 0 0 0 0 0 0 0 0 240 0 0 0 253 254 253 239 179 99 30 5 0 0 0 0 0 0 0 0 0 0 0 0 0 0 232 0 0 0 254 254 253 246 210 134 53 15 3 0 0 0 0 0 0 0 0 0 0 0 0 0 196 0 0 0 253 252 249 241 204 112 42 14 3 0 0 0 0 0 0 0 0 0 0 0 0 0 116 0 0 0 234 225 206 204 172 87 22 4 0 0 0 0 0 0 0 0 0 0 0 0 0 0 32 93 158 150 118 126 116 118 102 49 7 0 0 0 0 0 0 0 0 0 0 0 0 0 0 0 11 37 66 57 32 35 32 25 16 4 0 0 0 0 0 0 0 0 0 0 0 0 0 0 0 0 0 0 0 0 0 0 0 0 0 0 0 0 0 0 0 0 0 0 0 0 0 0 0 0 0 0 0 0 0 0 0 0 0 0 0 0 0 0 0 0 0 0 0 0 0 0 0 0 0 0 0 0 0 0 0 0 0 0 0 0 0 0 0 0 0 0 0 0 0 0 0 0 0 0 0 0 0 0 0 0 0 0 0 0 0 0 0 0 0 0 0 0 0 0 0 0 0 0 0 0 0 0 0 0 0 0 0 0 0 0 0 0 0 0 0 0 0 0 0 0 0 0 0 0 0 0 0 0 0 0 0 0 0 0 0 0 0 0 0 0 0 0 0 0 0 0 0 0 0 0 0 0 0 0 0 0 0 0 0 0 0 0 0 0 0 0 0 0 0 0 0 0 0 0 0 0 0 0 0 0 0 0 0 0 0 0 0 0 0 0 0 0 0 0 0 0 0 0 0 0 0 0 0 0 0 0 0 0 0 0 0 0 0 0 0 0 0 0 0 0 0 0 0 0 0 0 0 0 0 0 0 0 0 0 0 0 0 0 0 0 0 0 0 0 0 0 0 0 0 0 0 0 0 0 0 0 0 0 0 0 0 0 0 0 0 0 0 0 0 0 0 0 0 0 0 0 0 0 0 0 0 0 0 0 0 0 0 0 0 0 0 0 0 0 0 0 0 0 0 0 0 0 0 0 0 0 0 0 0 0 0 0 0 0 0 0 0 0 0 0 0 0 0 0 0 0 0 0 0 0 0 0 0 0 0 0 0 0 0 0 0 0 0 0 0 0 0 0 0 0 0 0 0 0 0 0 0 0 0 0 0 0 0 0 2 2 0 0 0 0 0 0 0 0 0 0 0 0 0 0 0 0 0 0 0 0 0 0 0 0 40 50 17 3 0 0 0 0 0 0 0 0 0 0 0 0 0 0 0 0 0 0 0 0 0 0 101 111 60 20 5 1 0 0 0 0 0 0 0 0 0 0 0 0 0 0 0 0 0 0 0 0 145 160 0 46 17 3 1 4 4 0 0 0 0 0 0 0 0 0 0 0 0 0 0 0 0 0 200 203 0 94 74 52 42 63 44 4 0 0 0 0 0 0 0 0 0 0 0 0 0 0 0 0 232 230 0 187 195 212 200 151 86 30 6 1 0 0 0 0 0 0 0 0 0 0 0 0 0 0 237 240 0 244 247 251 249 231 182 119 37 7 1 0 0 0 0 0 0 0 0 0 0 0 0 0 222 245 0 253 254 254 253 248 226 161 67 21 4 0 0 0 0 0 0 0 0 0 0 0 0 0 168 232 0 254 254 253 251 244 218 142 57 21 4 0 0 0 0 0 0 0 0 0 0 0 0 0 73 127 0 240 242 240 227 212 186 114 30 7 1 0 0 0 0 0 0 0 0 0 0 0 0 0 18 29 89 103 98 134 138 129 113 61 11 1 0 0 0 0 0 0 0 0 0 0 0 0 0 0 5 13 29 31 24 33 32 25 17 5 1 0 0 0 0 0 0 0 0 0 0 0 0 0 0 0 0 0 0 0 0 0 0 0 0 0 0 0 0 0 0 0 0 0 0 0 0 0 0 0 0 0 0 0 0 0 0 0 0 0 0 0 0 0 0 0 0 0 0 0 0 0 0 0 0 0 0 0 0 0 0 0 0 0 0 0 0 0 0 0 0 0 0 0 0 0 0 0 0 0 0 0 0 0 0 0 0 0 0 0 0 0 0 0 0 0 0 0 0 0 0 0 0 0 0 0 0 0 0 0 0 0 0 0 0 0 0 0 0 0 0 0 0 0 0 0 0 0 0 0 0 0 0 0 0 0 0 0 0 0 0 0 0 0 0 0 0 0 0 0 0 0 0 0 0 0 0 0 0 0 0 0 0 0 0 0 0 0 0 0 0 0 0 0 0 0 0 0 0 0 0 0 0 0 0 0 0 0 0 0 0 0 0 0 0 0 0 0 0 0 0 0 0 0 0 0 0 0 0 0 0 0 0 0 0 0 0 0 0 0 0 0 0 0 0 0 0 0 0 0 0 0 0 0 0 0 0 0 0 0 0 0 0 0 0 0 0 0 0 0 0 0 0 0 0 0 0 0 0 0 0 0 0 0 0 0 0 0 0 0 0 0 0 0 0 0 0 0 0 0 0 0 0 0 0 0 0 0 0 0 0 0 0 0 0 0 0 0 0 0 0 0 0 0 0 0 0 0 0 0 0 0 0 0 0 0 0 0 0 0 0 0 0 1 1 0 0 0 0 0 0 0 0 0 0 0 0 0 0 0 0 0 0 0 0 0 0 0 0 1 1 0 0 0 0 0 0 0 0 0 0 0 0 0 0 0 0 0 0 0 2 3 0 0 0 0 1 1 0 0 0 0 0 0 0 0 0 0 0 0 0 0 0 0 0 0 57 70 22 2 0 0 1 1 0 0 0 0 0 0 0 0 0 0 0 0 0 0 0 0 0 0 137 161 99 31 4 1 1 1 0 0 0 0 0 0 0 0 0 0 0 0 0 0 0 0 0 0 176 198 167 83 16 3 2 1 1 0 0 0 0 0 0 0 0 0 0 0 0 0 0 0 0 0 208 214 182 90 22 7 6 9 13 10 2 0 0 0 0 0 0 0 0 0 0 0 0 0 0 0 225 226 197 119 69 79 76 47 45 40 17 2 0 0 0 0 0 0 0 0 0 0 0 0 0 0 218 230 221 188 172 192 213 204 170 121 45 12 2 0 0 0 0 0 0 0 0 0 0 0 0 0 196 237 246 248 249 248 249 247 227 168 77 32 7 0 0 0 0 0 0 0 0 0 0 0 0 0 147 225 249 252 253 253 251 248 232 170 76 33 7 0 0 0 0 0 0 0 0 0 0 0 0 0 74 140 217 237 242 244 239 230 214 144 39 12 1 0 0 0 0 0 0 0 0 0 0 0 0 0 25 34 72 98 112 142 145 143 136 72 10 1 0 0 0 0 0 0 0 0 0 0 0 0 0 0 6 13 24 26 23 26 26 26 21 7 1 0 0 0 0 0 0 0 0 0 0 0 0 0 0 0 0 0 0 0 0 0 0 0 0 0 0 0 0 0 0 0 0 0 0 0 0 0 0 0 0 0 0 0 0 0 0 0 0 0 0 0 0 0 0 0 0 0 0 0 0 0 0 0 0 0 0 0 0 0 0 0 0 0 0 0 0 0 0 0 0 0 0 0 0 0 0 0 0 0 0 0 0 0 0 0 0 0 0 0 0 0 0 0 0 0 0 0 0 0 0 0 0 0 0 0 0 0 0 0 0 0 0 0 0 0 0 0 0 0 0 0 0 0 0 0 0 0 0 0 0 0 0 0 0 0 0 0 0 0 0 0 0 0 0 0 0 0 0 0 0 0 0 0 0 0 0 0 0 0 0 0 0 0 0 0 0 0 0 0 0 0 0 0 0 0 0 0 0 0 0 0 0 0 0 0 0 0 0 0 0 0 0 0 0 0 0 0 0 0 0 0 0 0 0 0 0 0 0 0 0 0 0 0 0 0 0 0 0 4 5 1 0 0 0 0 0 0 0 0 0 0 0 0 0 0 0 0 0 0 0 0 0 1 4 14 17 6 1 0 0 0 0 0 0 0 0 0 0 0 0 0 0 0 0 0 0 1 1 3 10 27 30 15 3 0 0 0 0 0 0 0 0 0 0 0 0 0 0 0 0 0 1 1 2 4 15 33 35 20 6 1 0 0 0 0 0 0 0 0 0 0 0 0 0 0 0 0 3 2 3 5 15 29 32 23 9 2 1 0 0 0 0 0 0 0 0 0 0 0 0 0 0 0 4 3 3 5 12 22 25 21 11 3 1 0 0 0 0 0 0 0 0 0 0 0 0 0 0 0 5 4 3 5 9 15 18 16 10 4 1 0 0 0 0 0 0 0 0 0 0 0 0 0 0 0 37 46 16 5 7 11 15 13 7 3 1 0 0 0 1 0 0 0 0 0 0 0 0 0 0 0 130 159 102 34 10 11 14 11 6 2 1 1 1 1 1 1 0 0 0 0 0 0 0 0 0 0 191 211 183 104 24 13 15 12 6 4 2 1 1 1 1 1 0 0 0 0 0 0 0 0 0 0 215 218 194 120 36 20 28 31 27 18 9 5 2 1 1 0 0 0 0 0 0 0 0 0 0 0 218 218 201 147 76 49 58 63 64 57 37 17 6 1 0 0 0 0 0 0 0 0 0 0 0 0 202 217 215 178 121 105 149 165 159 131 65 29 10 2 0 0 0 0 0 0 0 0 0 0 0 0 180 218 232 225 217 212 230 236 223 186 104 45 13 2 0 0 0 0 0 0 0 0 0 0 0 0 154 212 242 246 247 247 249 248 239 196 101 45 11 1 0 0 0 0 0 0 0 0 0 0 0 0 100 151 214 230 236 242 242 238 226 158 45 20 5 1 0 0 0 0 0 0 0 0 0 0 0 0 39 47 81 108 127 153 156 158 143 68 13 6 2 1 1 0 0 0 0 0 0 0 0 0 0 0 14 26 38 44 45 45 48 49 33 10 3 2 1 1 1 1 0 0 0 0 0 0 0 0 0 0 0 0 0 0 0 0 0 0 0 0 0 0 0 0 0 0 0 0 0 0 0 0 0 0 0 0 0 0 0 0 0 0 0 0 0 0 0 0 0 0 0 0 0 0 0 0 0 0 0 0 0 0 0 0 0 0 0 0 0 0 0 0 0 0 0 0 0 0 0 0 0 0 0 0 0 0 0 0 0 0 0 0 0 0 0 0 0 0 0 0 0 0 0 0 0 0 0 0 0 0 0 0 0 0 0 0 0 0 0 0 0 0 0 0 0 0 0 0 0 0 0 0 0 0 0 0 0 0 0 0 0 0 0 0 0 0 0 0 0 0 0 0 0 0 0 0 0 0 0 0 0 0 0 0 0 0 0 0 0 2 2 7 8 1 0 0 0 0 0 0 0 0 0 0 0 0 0 0 0 0 0 0 0 0 5 18 19 36 43 15 2 0 0 0 0 0 0 0 0 0 0 0 0 0 0 0 0 0 0 3 23 50 54 85 98 53 13 1 0 0 0 0 0 0 0 0 0 0 0 0 0 0 0 0 13 22 50 77 92 130 143 100 43 12 2 0 0 0 0 0 0 0 0 0 0 0 0 0 0 0 47 54 71 88 118 156 163 127 77 39 13 1 0 0 0 0 0 0 0 0 0 0 0 0 0 0 74 71 77 89 126 162 163 135 97 64 31 5 0 0 0 0 0 0 0 0 0 0 0 0 0 0 79 70 72 84 119 149 149 131 107 77 45 13 1 0 0 0 0 0 0 0 0 0 0 0 0 0 80 70 65 75 101 122 123 118 106 80 51 21 4 1 1 1 0 0 0 0 0 0 0 0 0 0 85 72 58 60 74 89 93 96 91 72 47 25 13 12 16 15 6 1 0 0 0 0 0 0 0 0 79 69 49 44 54 69 74 72 66 52 34 23 21 28 40 43 26 6 0 0 0 0 0 0 0 0 107 124 85 49 48 63 71 62 45 32 24 20 24 35 50 55 37 11 0 0 0 0 0 0 0 0 177 191 163 102 53 59 78 67 40 40 40 28 24 31 41 42 28 8 0 0 0 0 0 0 0 0 214 209 187 131 67 74 104 99 68 63 70 57 34 24 27 27 18 6 0 0 0 0 0 0 0 0 220 215 203 165 111 118 141 141 120 96 91 86 57 25 17 21 17 6 0 0 0 0 0 0 0 0 210 215 215 191 156 166 180 180 177 147 100 84 68 34 15 21 20 8 0 0 0 0 0 0 0 0 192 205 218 207 193 206 224 229 223 195 126 79 62 32 14 20 18 7 0 0 0 0 0 0 0 0 167 188 226 232 230 239 246 246 237 197 119 82 60 26 13 19 14 4 0 0 0 0 0 0 0 0 121 135 193 213 220 236 240 235 215 147 83 79 57 24 15 19 13 3 0 0 0 0 0 0 0 0 67 67 85 104 133 166 171 158 133 90 74 67 40 21 22 23 14 3 0 0 0 0 0 0 0 0 42 59 66 76 89 94 101 98 72 49 44 38 27 27 33 33 21 6 0 0 0 0 0 0 0 0 0 0 0 0 0 0 0 0 0 0 0 0 0 0 0 0 0 0 0 0 0 0 0 0 0 0 0 0 0 0 0 0 0 0 0 0 0 0 0 0 0 0 0 0 0 0 0 0 0 0 0 0 0 0 0 0 0 0 0 0 0 0 0 0 0 0 0 0 0 0 0 0 0 0 0 0 0 0 0 0 0 0 0 0 0 0 0 0 0 0 0 0 0 0 0 0 0 0 0 0 0 0 0 0 0 0 0 0 0 1 1 0 0 0 0 0 0 0 0 0 0 0 0 0 0 0 0 0 0 0 0 0 0 5 7 26 30 6 0 0 0 0 0 0 0 0 0 0 0 0 0 0 0 0 0 0 0 0 15 52 53 88 103 41 4 0 0 0 0 0 0 0 0 0 0 0 0 0 0 0 0 0 1 10 68 130 125 152 171 109 32 3 0 0 0 0 0 0 0 0 0 0 0 0 0 0 0 0 27 60 134 179 177 195 208 171 96 36 7 0 0 0 0 0 0 0 0 0 0 0 0 0 0 0 110 138 176 196 201 216 222 204 160 109 46 6 0 0 0 0 0 0 0 0 0 0 0 0 0 0 174 184 193 197 207 221 225 215 192 163 105 30 1 0 0 0 0 0 0 0 0 0 0 0 0 0 192 191 190 191 203 216 221 215 203 184 144 67 9 0 0 0 0 0 0 0 0 0 0 0 0 0 190 182 178 182 193 205 208 207 201 187 160 98 28 3 2 2 0 0 0 0 0 0 0 0 0 0 186 175 169 171 176 184 185 188 185 177 161 120 65 35 37 34 16 2 0 0 0 0 0 0 0 0 182 169 158 151 149 156 161 164 159 151 147 130 103 94 106 107 75 27 2 0 0 0 0 0 0 0 161 152 138 124 122 137 148 143 128 116 120 121 119 132 153 158 133 72 15 0 0 0 0 0 0 0 135 141 128 111 108 128 148 135 101 92 97 97 111 137 161 167 147 92 26 1 0 0 0 0 0 0 167 169 153 122 101 123 155 138 94 100 108 91 102 127 146 148 126 75 20 1 0 0 0 0 0 0 212 198 179 143 113 141 170 159 122 121 134 118 104 105 115 120 102 57 13 0 0 0 0 0 0 0 225 213 204 179 155 174 191 190 169 144 141 139 113 82 85 103 99 61 17 1 0 0 0 0 0 0 220 213 213 202 190 199 209 210 199 169 137 131 119 79 72 96 98 67 22 1 0 0 0 0 0 0 205 199 207 208 208 219 230 232 220 191 144 120 109 72 67 91 91 59 18 1 0 0 0 0 0 0 181 180 206 219 227 238 244 243 228 187 138 122 106 68 70 93 86 46 9 0 0 0 0 0 0 0 153 153 178 200 221 236 239 232 208 162 131 130 109 76 82 100 88 43 6 0 0 0 0 0 0 0 118 121 124 146 183 204 201 184 168 147 136 130 106 90 101 111 93 46 7 0 0 0 0 0 0 0 85 108 113 134 156 164 168 159 131 111 110 108 100 112 128 131 109 60 14 0 0 0 0 0 0 0 0 0 0 0 0 0 0 0 0 0 0 0 0 0 0 0 0 0 0 0 0 0 0 0 0 0 0 0 0 0 0 0 0 0 0 0 0 0 0 0 0 0 0 0 0 0 0 0 0 0 0 0 0 0 0 0 0 0 0 0 0 0 0 0 0 0 0 0 0 0 0 0 0 0 0 0 0 0 0 0 0 0 0 0 0 0 0 0 0 0 0 0 0 0 0 0 0 0 0 0 0 0 0 0 0 0 0 0 1 20 21 1 0 0 0 0 0 0 0 0 0 0 0 0 0 0 0 0 0 0 0 0 6 38 45 102 116 36 1 0 0 0 0 0 0 0 0 0 0 0 0 0 0 0 0 0 0 4 65 146 143 179 199 125 26 0 0 0 0 0 0 0 0 0 0 0 0 0 0 0 0 0 9 51 159 213 206 215 228 193 99 24 1 0 0 0 0 0 0 0 0 0 0 0 0 0 0 0 104 156 212 231 228 231 236 222 181 120 41 2 0 0 0 0 0 0 0 0 0 0 0 0 0 0 199 216 229 234 233 235 236 231 219 197 130 33 0 0 0 0 0 0 0 0 0 0 0 0 0 0 227 231 232 231 231 232 232 231 229 222 190 98 11 0 0 0 0 0 0 0 0 0 0 0 0 0 229 230 228 224 223 224 226 228 228 224 208 150 45 1 0 0 0 0 0 0 0 0 0 0 0 0 224 223 221 217 213 215 217 220 220 216 208 175 94 21 17 16 6 0 0 0 0 0 0 0 0 0 220 217 215 210 202 202 206 206 202 202 201 186 149 106 106 106 70 20 0 0 0 0 0 0 0 0 214 211 207 200 188 188 196 195 183 182 189 185 176 174 182 184 160 92 20 0 0 0 0 0 0 0 201 200 196 186 174 177 191 188 168 163 173 173 176 189 202 207 198 156 67 6 0 0 0 0 0 0 188 192 187 179 167 171 190 183 155 152 159 156 163 181 198 204 198 169 91 13 0 0 0 0 0 0 198 195 187 178 167 173 192 182 150 150 160 150 156 172 186 191 183 148 71 9 0 0 0 0 0 0 220 208 197 187 177 185 196 188 163 157 167 161 156 158 165 173 167 130 53 3 0 0 0 0 0 0 229 217 209 202 195 198 205 204 189 171 167 168 159 145 145 156 158 131 65 8 0 0 0 0 0 0 227 213 210 210 207 206 216 218 204 183 164 161 158 143 138 148 151 132 75 14 0 0 0 0 0 0 216 202 204 209 212 217 228 229 213 189 166 155 148 132 131 144 145 122 63 10 0 0 0 0 0 0 203 194 197 208 223 233 240 237 217 186 162 155 145 129 133 148 146 110 43 3 0 0 0 0 0 0 195 193 190 200 224 236 238 231 213 182 160 159 154 142 146 157 152 109 35 1 0 0 0 0 0 0 185 188 181 191 213 222 222 213 201 180 165 167 163 157 161 168 160 114 37 1 0 0 0 0 0 0 151 176 175 191 202 205 208 200 183 167 164 169 168 171 178 181 172 132 55 5 0 0 0 0 0 0 0 0 0 0 0 0 0 0 0 0 0 0 0 0 0 0 0 0 0 0 0 0 0 0 0 0 0 0 0 0 0 0 0 0 0 0 0 0 0 0 0 0 0 0 0 0 0 0 0 0 0 0 0 0 0 0 0 0 0 0 0 0 0 0 0 0 0 0 0 0 0 0 0 0 0 0 0 0 0 0 0 0 0 0 0 0 0 0 0 0 0 0 0 0 0 0 0 0 0 0 0 0 0 0 0 0 0 0 1 19 19 1 0 0 0 0 0 0 0 0 0 0 0 0 0 0 0 0 0 0 0 0 6 34 40 85 97 31 1 0 0 0 0 0 0 0 0 0 0 0 0 0 0 0 0 0 0 4 54 120 115 142 165 101 22 0 0 0 0 0 0 0 0 0 0 0 0 0 0 0 0 0 9 43 127 176 166 171 188 154 78 21 1 0 0 0 0 0 0 0 0 0 0 0 0 0 0 0 86 127 172 191 186 187 192 176 142 98 35 2 0 0 0 0 0 0 0 0 0 0 0 0 0 0 161 177 189 192 190 188 187 181 176 160 104 28 0 0 0 0 0 0 0 0 0 0 0 0 0 0 183 187 189 186 183 180 174 176 182 178 150 78 10 0 0 0 0 0 0 0 0 0 0 0 0 0 180 183 182 175 171 170 164 166 174 171 160 115 37 1 0 0 0 0 0 0 0 0 0 0 0 0 173 175 174 166 158 159 158 156 156 154 151 133 75 18 15 14 5 0 0 0 0 0 0 0 0 0 166 168 167 158 146 147 152 147 138 136 138 136 115 83 81 84 57 17 0 0 0 0 0 0 0 0 158 160 158 149 137 136 147 142 127 125 128 126 130 133 138 141 124 74 18 0 0 0 0 0 0 0 150 152 150 143 130 127 141 139 122 119 120 114 119 133 145 150 148 121 56 5 0 0 0 0 0 0 146 148 144 140 127 123 137 135 116 113 115 107 108 117 131 140 140 126 73 12 0 0 0 0 0 0 153 148 143 141 131 128 137 132 112 108 115 109 105 110 120 128 128 108 56 8 0 0 0 0 0 0 167 154 148 148 141 137 139 134 117 109 117 117 110 106 108 116 119 97 43 3 0 0 0 0 0 0 176 160 153 155 149 142 145 144 130 117 116 119 118 108 100 103 107 96 51 7 0 0 0 0 0 0 174 154 150 155 151 145 156 158 141 124 113 113 118 112 101 97 98 93 58 12 0 0 0 0 0 0 162 144 143 148 149 151 167 168 146 126 113 110 110 104 97 95 96 87 49 9 0 0 0 0 0 0 152 142 137 142 159 173 184 178 150 124 112 111 108 99 95 98 99 81 35 3 0 0 0 0 0 0 152 149 138 140 164 182 188 176 150 124 110 113 115 109 104 106 107 81 30 1 0 0 0 0 0 0 149 151 140 142 156 166 170 161 146 127 115 119 122 116 112 115 114 86 30 1 0 0 0 0 0 0 119 143 137 148 153 154 158 151 139 127 122 127 126 121 121 123 121 98 44 5 0 0 0 0 0 0 0 0 0 0 0 0 0 0 0 0 0 0 0 0 0 0 0 0 0 0 0 0 0 0 0 0 0 0 0 0 0 0 0 0 0 0 0 0 0 0 0 0 0 0 0 0 0 0 0 0 0 0 0 0 0 0 0 0 0 0 0 0 0 0 0 0 0 0 0 0 0 0 0 0 0 0 0 0 0 0 0 0 0 0 0 0 0 0 0 0 0 0 0 0 0 0 0 0 0 0 0 0 0 0 0 0 0 0 0 0 0 0 0 0 0 0 0 0 0 0 0 0 0 0 0 0 0 0 0 0 0 0 0 0 0 0 0 0 0 0 0 0 0 0 0 0 0 0 0 0 0 0 0 0 0 0 0 0 0 0 0 0 0 0 0 0 0 0 0 0 0 0 0 0 0 0 0 0 0 0 0 0 0 0 0 0 0 0 0 0 0 0 0 0 0 0 0 0 0 0 0 0 0 0 0 0 0 0 0 0 0 0 0 0 0 0 0 0 0 0 0 0 0 0 0 0 0 0 0 0 0 0 0 0 0 0 0 0 0 0 0 0 0 0 0 0 0 0 0 0 0 0 0 0 0 0 0 0 0 0 0 0 0 0 0 0 0 0 0 0 0 0 0 0 0 0 0 0 0 0 0 0 0 0 0 0 0 0 0 0 0 0 0 0 0 0 0 0 0 0 0 0 0 0 0 0 0 0 0 0 0 0 0 0 0 0 0 0 0 0 0 0 0 0 0 0 0 0 0 0 0 0 0 0 0 0 0 0 0 0 0 0 0 0 0 0 0 0 0 0 0 0 0 0 0 0 0 0 0 0 0 0 0 0 0 0 0 0 0 0 0 0 0 0 0 0 0 0 0 0 0 0 0 0 0 0 0 0 0 0 0 0 0 0 0 0 0 0 0 0 0 0 0 0 0 0 0 0 0 0 0 0 0 0 0 0 0 0 0 0 0 0 0 0 0 0 0 0 0 0 0 0 0 0 0 0 0 0 0 0 0 0 0 0 0 0 0 0 0 0 0 0 0 0 0 0 0 0 0 0 0 0 0 0 0 0 0 0 0 0 0 0 0 0 0 0 0 0 0 0 0 0 0 0 0 0 0 0 0 0 0 0 0 0 0 0 0 0 0 0 0 0 0 0 0 0 0 0 0 0 0 0 0 0 0 0 0 0 0 0 0 0 0 0 0 0 0 0 0 0 0 0 0 0 0 0 0 0 0 0 0 0 0 0 0 0 0 0 0 0 0 0 0 0 0 0 0 0 0 0 0 0 0 0 0 0 0 0 0 0 0 0 0 0 0 0 0 0 0 0 0 0 0 0 0 0 0 0 0 0 0 0 0 0 0 0 0 0 0 0 0 0 0 0 0 0 0 0 0 0 0 0 0 0 0 0 0 0 0 0 0 0 0 0 0 0 0 0 0 0 0 0 0 0 0 0 0 0 0 0 0 0 0 0 0 0 0 0 0 0 0 0 0 0 0 0 0 0 0 0 0 0 0 0 0 0 0 0 0 0 0 0 0 0 0 0 
</DataArray>
<DataArray Name="HRRPUV" NumberOfComponents="1" type="UInt8" format="ascii">