<?xml version="1.0"?>
<VTKFile type="PolyData" version="1.0" byte_order="LittleEndian" header_type="UInt64">
<PolyData>
<Piece NumberOfPoints="37" NumberOfVerts="0" NumberOfLines="0" NumberOfPolys="0">
    <Points>
        <DataArray type="Float32" NumberOfComponents="3" format="ascii">
        15.4918 18.2616 7.0045 15.3640 18.5956 7.0686 15.2181 17.5344 7.2374 15.6517 18.8095 7.1691 15.4068 19.5310 7.1076 15.3577 18.4901 6.9988 15.8959 18.0249 6.9333 15.6179 17.1444 6.5402 15.5720 16.8687 6.4611 16.1866 15.8458 5.7507 15.3065 17.0376 6.6413 15.2122 17.5895 6.9878 15.0566 18.2588 7.3133 15.0988 20.3759 7.4581 15.8120 18.0386 7.0187 15.5591 16.7957 6.5406 15.6553 18.3662 7.0796 16.1503 16.4630 6.0450 16.2669 16.8719 6.5373 15.6750 18.1682 6.9799 15.4493 18.1581 7.4710 15.4611 20.7198 7.4778 16.0522 17.8527 6.7971 15.0708 17.4723 6.7044 16.1178 17.3832 6.6333 15.6558 17.1169 6.7135 15.9131 17.7840 6.7572 16.5148 21.2197 7.7670 15.6703 16.9049 7.0524 15.1062 17.6086 7.0029 15.8641 16.0570 6.4638 15.6182 19.0283 7.4165 15.6158 18.5224 7.2884 15.4157 17.5253 7.4070 15.3860 18.2840 7.6950 15.9897 17.6693 6.9810 15.7865 17.1847 7.1637 
        </DataArray>
    </Points>
    <PointData>
        <DataArray type="Float32" Name="tag" format="ascii">
            213979.0000 214347.0000 214679.0000 216471.0000 220255.0000 223655.0000 223707.0000 223787.0000 226115.0000 227175.0000 227299.0000 227467.0000 231071.0000 231259.0000 232843.0000 234087.0000 234627.0000 235671.0000 238979.0000 239003.0000 239363.0000 240563.0000 240699.0000 240727.0000 241015.0000 241075.0000 242395.0000 243667.0000 243815.0000 243987.0000 245495.0000 247167.0000 248515.0000 248655.0000 252223.0000 252275.0000 255731.0000 
         </DataArray>
    </PointData>
</Piece>
</PolyData>
</VTKFile>