<?xml version="1.0"?>
<VTKFile type="ImageData" version="1.0" byte_order="LittleEndian" header_type="UInt64">
<ImageData WholeExtent="25 50 25 50 0 15"
 Origin="15.0000 15.0000 0.0000" Spacing="0.6000 0.6000 0.6000">
<Piece Extent="25 50 25 50 0 15">
<PointData>
<DataArray Name="TEMPERATURE" NumberOfComponents="1" type="Float32" format="ascii">
23.1 24.7 25.5 26.5 27.0 27.6 28.0 27.3 25.8 24.7 24.1 23.5 23.0 22.6 22.2 21.9 21.6 21.4 21.2 21.0 20.8 20.6 20.5 20.3 20.2 20.1 23.6 23.9 24.6 25.3 25.6 26.1 26.5 25.9 24.8 24.1 23.6 23.1 22.7 22.3 22.0 21.7 21.5 21.3 21.1 20.9 20.7 20.6 20.4 20.3 20.2 20.1 23.1 23.4 23.9 24.4 24.7 25.1 25.4 25.0 24.3 23.6 23.2 22.8 22.4 22.1 21.9 21.6 21.4 21.2 21.0 20.8 20.7 20.5 20.4 20.3 20.1 20.1 22.7 22.9 23.2 23.7 24.0 24.2 24.4 24.3 23.8 23.3 22.8 22.5 22.2 21.9 21.7 21.5 21.3 21.1 20.9 20.8 20.6 20.5 20.4 20.3 20.1 20.1 22.3 22.4 22.8 23.2 23.3 23.4 23.5 23.5 23.3 22.9 22.5 22.2 22.0 21.8 21.6 21.4 21.2 21.1 20.9 20.8 20.6 20.5 20.4 20.3 20.1 20.1 21.9 22.1 22.4 22.6 22.8 22.9 23.0 23.0 22.8 22.6 22.3 22.1 21.8 21.6 21.4 21.3 21.1 21.0 20.8 20.7 20.6 20.5 20.4 20.2 20.1 20.1 21.7 21.8 22.0 22.2 22.4 22.5 22.6 22.5 22.5 22.3 22.1 21.9 21.7 21.5 21.3 21.2 21.0 20.9 20.8 20.7 20.6 20.4 20.3 20.2 20.1 20.1 21.5 21.6 21.8 22.0 22.1 22.1 22.1 22.1 22.1 22.1 21.9 21.7 21.5 21.3 21.2 21.1 20.9 20.8 20.7 20.6 20.5 20.4 20.3 20.2 20.1 20.1 21.3 21.4 21.6 21.7 21.7 21.8 21.8 21.9 21.9 21.8 21.7 21.6 21.4 21.2 21.1 21.0 20.9 20.8 20.7 20.6 20.5 20.4 20.3 20.2 20.1 20.1 21.1 21.2 21.3 21.4 21.5 21.6 21.6 21.6 21.6 21.6 21.4 21.4 21.4 21.2 21.0 20.9 20.8 20.7 20.6 20.5 20.4 20.4 20.3 20.2 20.1 20.1 21.0 21.0 21.2 21.3 21.3 21.3 21.4 21.4 21.4 21.4 21.3 21.2 21.2 21.1 20.9 20.8 20.7 20.6 20.6 20.5 20.4 20.3 20.3 20.2 20.1 20.0 20.8 20.9 21.1 21.1 21.1 21.1 21.2 21.2 21.3 21.2 21.1 21.0 21.0 21.0 20.9 20.8 20.7 20.6 20.5 20.4 20.4 20.3 20.2 20.2 20.1 20.0 20.7 20.8 21.0 21.0 21.0 21.0 21.0 21.1 21.1 21.1 21.0 20.9 20.9 20.9 20.9 20.8 20.6 20.5 20.5 20.4 20.3 20.3 20.2 20.1 20.1 20.0 20.7 20.8 20.9 20.9 20.9 20.9 20.8 20.9 21.0 21.0 20.9 20.8 20.8 20.8 20.8 20.7 20.6 20.5 20.4 20.4 20.3 20.2 20.2 20.1 20.1 20.0 20.6 20.6 20.7 20.8 20.8 20.8 20.7 20.7 20.8 20.8 20.8 20.7 20.6 20.6 20.7 20.7 20.6 20.5 20.4 20.3 20.3 20.2 20.2 20.1 20.1 20.0 20.5 20.6 20.6 20.7 20.7 20.6 20.6 20.6 20.7 20.7 20.7 20.6 20.5 20.5 20.6 20.6 20.6 20.5 20.4 20.3 20.3 20.2 20.2 20.1 20.1 20.0 20.4 20.5 20.5 20.6 20.6 20.5 20.5 20.6 20.6 20.6 20.6 20.5 20.5 20.5 20.5 20.5 20.5 20.5 20.4 20.3 20.2 20.2 20.1 20.1 20.1 20.0 20.4 20.4 20.5 20.5 20.5 20.5 20.5 20.5 20.5 20.5 20.5 20.4 20.4 20.4 20.4 20.4 20.4 20.4 20.4 20.3 20.2 20.2 20.1 20.1 20.0 20.0 20.3 20.4 20.4 20.4 20.4 20.4 20.4 20.4 20.4 20.4 20.4 20.4 20.3 20.3 20.3 20.3 20.3 20.3 20.3 20.3 20.2 20.2 20.1 20.1 20.0 20.0 20.3 20.3 20.3 20.3 20.3 20.3 20.3 20.3 20.4 20.4 20.3 20.3 20.3 20.3 20.3 20.3 20.3 20.3 20.3 20.3 20.2 20.2 20.1 20.1 20.0 20.0 20.2 20.2 20.3 20.3 20.2 20.3 20.3 20.3 20.3 20.3 20.3 20.2 20.2 20.2 20.2 20.2 20.2 20.2 20.2 20.2 20.2 20.1 20.1 20.1 20.0 20.0 20.2 20.2 20.2 20.2 20.2 20.2 20.2 20.2 20.3 20.3 20.2 20.2 20.2 20.2 20.2 20.2 20.2 20.2 20.1 20.1 20.1 20.1 20.1 20.1 20.0 20.0 20.1 20.1 20.2 20.2 20.1 20.1 20.2 20.2 20.2 20.2 20.2 20.2 20.1 20.1 20.1 20.1 20.1 20.1 20.1 20.1 20.1 20.1 20.1 20.1 20.0 20.0 20.1 20.1 20.1 20.1 20.1 20.1 20.1 20.1 20.1 20.2 20.2 20.1 20.1 20.1 20.1 20.1 20.1 20.1 20.1 20.1 20.1 20.1 20.1 20.0 20.0 20.0 20.0 20.0 20.1 20.1 20.1 20.1 20.1 20.1 20.1 20.1 20.1 20.1 20.1 20.0 20.0 20.0 20.0 20.0 20.0 20.0 20.0 20.0 20.0 20.0 20.0 20.0 20.0 20.0 20.0 20.0 20.0 20.0 20.0 20.0 20.0 20.1 20.1 20.1 20.1 20.0 20.0 20.0 20.0 20.0 20.0 20.0 20.0 20.0 20.0 20.0 20.0 20.0 23.2 25.0 25.9 27.0 28.0 28.5 28.7 28.4 26.7 25.0 24.3 23.6 23.1 22.7 22.2 21.9 21.6 21.4 21.2 21.0 20.8 20.6 20.5 20.3 20.2 20.1 23.7 24.2 24.8 25.4 25.9 26.6 26.8 26.0 25.0 24.3 23.7 23.2 22.8 22.4 22.0 21.7 21.5 21.3 21.0 20.9 20.7 20.5 20.4 20.3 20.1 20.1 23.2 23.5 24.0 24.4 24.9 25.6 25.7 25.1 24.4 23.8 23.3 22.9 22.5 22.2 21.9 21.6 21.4 21.2 21.0 20.8 20.6 20.5 20.4 20.2 20.1 20.1 22.8 22.9 23.2 23.7 24.2 24.6 24.6 24.4 23.9 23.3 22.9 22.5 22.2 22.0 21.7 21.5 21.3 21.1 20.9 20.8 20.6 20.5 20.4 20.2 20.1 20.1 22.3 22.5 22.8 23.2 23.5 23.6 23.8 23.6 23.3 23.0 22.6 22.3 22.0 21.8 21.6 21.4 21.2 21.0 20.9 20.7 20.6 20.5 20.3 20.2 20.1 20.1 22.0 22.1 22.4 22.7 22.9 23.1 23.2 23.1 22.9 22.7 22.4 22.1 21.8 21.6 21.4 21.2 21.1 20.9 20.8 20.7 20.6 20.4 20.3 20.2 20.1 20.1 21.7 21.8 22.0 22.3 22.5 22.7 22.7 22.6 22.5 22.4 22.1 21.9 21.6 21.5 21.3 21.1 21.0 20.9 20.8 20.6 20.5 20.4 20.3 20.2 20.1 20.1 21.4 21.6 21.8 22.0 22.1 22.2 22.2 22.2 22.2 22.1 21.9 21.7 21.5 21.3 21.2 21.0 20.9 20.8 20.7 20.6 20.5 20.4 20.3 20.2 20.1 20.1 21.3 21.4 21.6 21.7 21.8 21.8 21.9 21.9 21.9 21.8 21.7 21.6 21.4 21.2 21.1 21.0 20.8 20.7 20.6 20.5 20.4 20.4 20.3 20.2 20.1 20.0 21.1 21.2 21.3 21.5 21.5 21.6 21.6 21.6 21.6 21.5 21.4 21.4 21.3 21.2 21.0 20.9 20.8 20.7 20.6 20.5 20.4 20.3 20.2 20.2 20.1 20.0 20.9 21.0 21.1 21.2 21.3 21.3 21.4 21.4 21.4 21.4 21.2 21.2 21.2 21.1 20.9 20.8 20.7 20.6 20.5 20.4 20.4 20.3 20.2 20.2 20.1 20.0 20.8 20.9 21.0 21.1 21.1 21.1 21.2 21.2 21.2 21.2 21.1 21.0 21.0 21.0 20.9 20.7 20.6 20.6 20.5 20.4 20.3 20.3 20.2 20.1 20.1 20.0 20.7 20.8 20.9 21.0 21.0 21.0 21.0 21.0 21.1 21.0 20.9 20.9 20.9 20.9 20.9 20.7 20.6 20.5 20.4 20.4 20.3 20.2 20.2 20.1 20.1 20.0 20.6 20.7 20.8 20.8 20.8 20.8 20.8 20.9 20.9 20.9 20.8 20.7 20.7 20.8 20.8 20.7 20.6 20.5 20.4 20.3 20.3 20.2 20.2 20.1 20.1 20.0 20.5 20.6 20.7 20.7 20.7 20.7 20.7 20.7 20.8 20.8 20.7 20.6 20.6 20.6 20.7 20.7 20.6 20.5 20.4 20.3 20.3 20.2 20.2 20.1 20.1 20.0 20.5 20.5 20.6 20.6 20.6 20.6 20.6 20.6 20.7 20.7 20.6 20.5 20.5 20.5 20.5 20.6 20.6 20.5 20.4 20.3 20.2 20.2 20.1 20.1 20.1 20.0 20.4 20.4 20.5 20.5 20.5 20.5 20.5 20.5 20.6 20.6 20.5 20.5 20.4 20.4 20.4 20.5 20.5 20.4 20.4 20.3 20.2 20.2 20.1 20.1 20.0 20.0 20.3 20.4 20.4 20.5 20.5 20.4 20.4 20.5 20.5 20.5 20.5 20.4 20.4 20.4 20.4 20.4 20.4 20.4 20.4 20.3 20.2 20.2 20.1 20.1 20.0 20.0 20.3 20.3 20.4 20.4 20.4 20.4 20.4 20.4 20.4 20.4 20.4 20.3 20.3 20.3 20.3 20.3 20.3 20.3 20.3 20.3 20.2 20.2 20.1 20.1 20.0 20.0 20.3 20.3 20.3 20.3 20.3 20.3 20.3 20.3 20.3 20.3 20.3 20.3 20.3 20.2 20.2 20.2 20.2 20.2 20.3 20.3 20.2 20.1 20.1 20.1 20.0 20.0 20.2 20.2 20.2 20.2 20.2 20.2 20.2 20.2 20.3 20.3 20.3 20.2 20.2 20.2 20.2 20.2 20.2 20.2 20.2 20.2 20.2 20.1 20.1 20.1 20.0 20.0 20.2 20.2 20.2 20.2 20.2 20.2 20.2 20.2 20.2 20.2 20.2 20.2 20.2 20.1 20.1 20.1 20.1 20.1 20.1 20.1 20.1 20.1 20.1 20.1 20.0 20.0 20.1 20.1 20.1 20.1 20.1 20.1 20.1 20.1 20.2 20.2 20.2 20.1 20.1 20.1 20.1 20.1 20.1 20.1 20.1 20.1 20.1 20.1 20.1 20.1 20.0 20.0 20.1 20.1 20.1 20.1 20.1 20.1 20.1 20.1 20.1 20.1 20.1 20.1 20.1 20.1 20.1 20.1 20.1 20.1 20.1 20.1 20.1 20.1 20.1 20.0 20.0 20.0 20.0 20.0 20.0 20.1 20.1 20.0 20.0 20.1 20.1 20.1 20.1 20.1 20.1 20.0 20.0 20.0 20.0 20.0 20.0 20.0 20.0 20.0 20.0 20.0 20.0 20.0 20.0 20.0 20.0 20.0 20.0 20.0 20.0 20.0 20.0 20.0 20.1 20.1 20.0 20.0 20.0 20.0 20.0 20.0 20.0 20.0 20.0 20.0 20.0 20.0 20.0 20.0 23.3 25.4 27.0 30.5 31.9 30.6 30.4 29.6 27.5 25.6 24.7 24.0 23.4 22.9 22.4 22.1 21.7 21.5 21.2 21.0 20.8 20.6 20.4 20.3 20.1 20.1 23.8 24.6 25.2 25.7 26.6 27.5 27.5 26.6 25.5 24.7 24.1 23.5 23.0 22.5 22.2 21.8 21.5 21.3 21.1 20.9 20.7 20.5 20.4 20.2 20.1 20.1 23.4 23.9 24.2 24.6 25.4 26.3 26.3 25.5 24.7 24.1 23.5 23.1 22.6 22.3 21.9 21.7 21.4 21.2 21.0 20.8 20.6 20.5 20.3 20.2 20.1 20.1 22.9 23.2 23.4 23.9 24.6 25.2 25.2 24.6 24.1 23.5 23.1 22.7 22.3 22.0 21.7 21.5 21.3 21.1 20.9 20.7 20.6 20.4 20.3 20.2 20.1 20.0 22.5 22.7 22.9 23.3 23.8 24.1 24.2 23.9 23.5 23.1 22.7 22.3 22.1 21.8 21.6 21.3 21.1 21.0 20.8 20.7 20.5 20.4 20.3 20.2 20.1 20.0 22.1 22.3 22.5 22.9 23.2 23.4 23.5 23.3 23.0 22.7 22.4 22.1 21.8 21.6 21.4 21.2 21.0 20.9 20.7 20.6 20.5 20.4 20.3 20.2 20.1 20.0 21.8 22.0 22.2 22.6 22.8 22.8 22.9 22.7 22.6 22.4 22.2 21.9 21.6 21.4 21.3 21.1 21.0 20.8 20.7 20.6 20.5 20.4 20.3 20.2 20.1 20.0 21.6 21.8 22.1 22.3 22.3 22.3 22.4 22.3 22.2 22.1 21.9 21.7 21.5 21.3 21.1 21.0 20.9 20.7 20.6 20.5 20.4 20.3 20.2 20.2 20.1 20.0 21.5 21.8 22.1 22.2 22.0 21.9 22.0 21.9 21.9 21.8 21.7 21.6 21.4 21.2 21.0 20.9 20.8 20.7 20.6 20.5 20.4 20.3 20.2 20.1 20.1 20.0 21.3 21.6 22.0 22.0 21.7 21.6 21.6 21.7 21.6 21.5 21.4 21.4 21.3 21.1 20.9 20.8 20.7 20.6 20.5 20.4 20.3 20.3 20.2 20.1 20.1 20.0 21.1 21.4 21.8 21.7 21.4 21.3 21.4 21.4 21.4 21.3 21.2 21.2 21.2 21.1 20.9 20.7 20.6 20.6 20.5 20.4 20.3 20.2 20.2 20.1 20.1 20.0 20.9 21.3 21.6 21.4 21.2 21.1 21.2 21.2 21.2 21.1 21.0 21.0 21.0 21.0 20.9 20.7 20.6 20.5 20.4 20.4 20.3 20.2 20.2 20.1 20.1 20.0 20.8 21.2 21.3 21.1 21.0 20.9 21.0 21.0 21.0 21.0 20.9 20.8 20.8 20.9 20.8 20.7 20.5 20.5 20.4 20.3 20.3 20.2 20.2 20.1 20.1 20.0 20.8 21.0 21.0 20.9 20.8 20.8 20.8 20.9 20.9 20.8 20.7 20.7 20.7 20.7 20.7 20.7 20.5 20.4 20.4 20.3 20.2 20.2 20.1 20.1 20.0 20.0 20.6 20.7 20.6 20.7 20.7 20.7 20.7 20.7 20.7 20.7 20.6 20.6 20.6 20.6 20.6 20.6 20.5 20.4 20.3 20.3 20.2 20.2 20.1 20.1 20.0 20.0 20.4 20.5 20.5 20.6 20.6 20.6 20.6 20.6 20.6 20.6 20.5 20.5 20.5 20.5 20.5 20.5 20.5 20.4 20.3 20.3 20.2 20.2 20.1 20.1 20.0 20.0 20.3 20.4 20.4 20.5 20.5 20.5 20.5 20.5 20.5 20.5 20.5 20.4 20.4 20.4 20.4 20.4 20.4 20.4 20.3 20.2 20.2 20.1 20.1 20.1 20.0 20.0 20.3 20.3 20.4 20.4 20.4 20.4 20.4 20.4 20.4 20.4 20.4 20.3 20.3 20.3 20.3 20.3 20.3 20.4 20.3 20.2 20.2 20.1 20.1 20.1 20.0 20.0 20.2 20.3 20.3 20.3 20.3 20.3 20.3 20.3 20.4 20.4 20.3 20.3 20.3 20.3 20.2 20.2 20.3 20.3 20.3 20.3 20.2 20.1 20.1 20.1 20.0 20.0 20.2 20.2 20.3 20.3 20.3 20.3 20.2 20.3 20.3 20.3 20.3 20.2 20.2 20.2 20.2 20.2 20.2 20.2 20.2 20.2 20.2 20.1 20.1 20.1 20.0 20.0 20.2 20.2 20.2 20.2 20.2 20.2 20.2 20.2 20.2 20.2 20.2 20.2 20.2 20.2 20.2 20.2 20.2 20.2 20.2 20.2 20.2 20.1 20.1 20.0 20.0 20.0 20.1 20.1 20.2 20.2 20.2 20.1 20.1 20.2 20.2 20.2 20.2 20.1 20.1 20.1 20.1 20.1 20.1 20.1 20.1 20.1 20.1 20.1 20.1 20.0 20.0 20.0 20.1 20.1 20.1 20.1 20.1 20.1 20.1 20.1 20.1 20.1 20.1 20.1 20.1 20.1 20.1 20.1 20.1 20.1 20.1 20.1 20.1 20.1 20.1 20.0 20.0 20.0 20.1 20.1 20.1 20.1 20.1 20.1 20.1 20.1 20.1 20.1 20.1 20.1 20.1 20.1 20.1 20.0 20.0 20.1 20.1 20.0 20.0 20.0 20.0 20.0 20.0 20.0 20.0 20.0 20.0 20.0 20.0 20.0 20.0 20.0 20.0 20.0 20.0 20.0 20.0 20.0 20.0 20.0 20.0 20.0 20.0 20.0 20.0 20.0 20.0 20.0 20.0 20.0 20.0 20.0 20.0 20.0 20.0 20.0 20.0 20.0 20.0 20.0 20.0 20.0 20.0 20.0 20.0 20.0 20.0 20.0 20.0 20.0 20.0 20.0 20.0 20.0 20.0 20.0 23.9 26.0 27.7 32.3 37.1 35.7 32.4 30.5 28.2 26.5 25.2 24.4 23.7 23.1 22.7 22.3 22.0 21.6 21.3 21.0 20.8 20.6 20.4 20.2 20.1 20.1 24.1 24.8 25.5 26.3 27.5 28.2 28.1 27.3 26.1 25.2 24.5 23.8 23.3 22.8 22.4 22.0 21.7 21.4 21.1 20.9 20.7 20.5 20.4 20.2 20.1 20.1 23.5 24.1 24.6 25.1 25.8 26.5 26.6 25.9 25.0 24.4 23.8 23.3 22.8 22.4 22.1 21.8 21.5 21.2 21.0 20.8 20.6 20.5 20.3 20.2 20.1 20.0 23.0 23.4 23.8 24.3 25.0 25.5 25.5 24.9 24.2 23.7 23.2 22.8 22.5 22.1 21.8 21.6 21.3 21.1 20.9 20.8 20.6 20.4 20.3 20.2 20.1 20.0 22.6 22.9 23.2 23.7 24.2 24.5 24.5 24.1 23.6 23.2 22.8 22.4 22.2 21.9 21.6 21.4 21.2 21.0 20.8 20.7 20.5 20.4 20.3 20.2 20.1 20.0 22.3 22.6 22.9 23.4 23.6 23.7 23.7 23.4 23.1 22.8 22.4 22.1 21.9 21.7 21.5 21.3 21.1 20.9 20.8 20.6 20.5 20.4 20.3 20.2 20.1 20.0 22.1 22.5 22.9 23.1 23.0 23.0 23.0 22.9 22.7 22.5 22.2 21.9 21.7 21.4 21.3 21.1 21.0 20.8 20.7 20.6 20.5 20.4 20.3 20.2 20.1 20.0 22.1 22.7 23.0 23.0 22.6 22.5 22.5 22.4 22.2 22.1 22.0 21.8 21.5 21.3 21.1 21.0 20.9 20.8 20.6 20.5 20.4 20.3 20.2 20.1 20.1 20.0 22.2 22.9 23.2 22.9 22.3 22.1 22.1 22.0 21.9 21.8 21.7 21.6 21.4 21.2 21.0 20.9 20.8 20.7 20.6 20.5 20.4 20.3 20.2 20.1 20.1 20.0 21.9 22.2 22.5 22.6 22.0 21.7 21.7 21.7 21.6 21.5 21.4 21.4 21.3 21.1 20.9 20.8 20.7 20.6 20.5 20.4 20.3 20.3 20.2 20.1 20.1 20.0 21.3 21.3 21.6 22.0 21.6 21.4 21.4 21.4 21.4 21.3 21.2 21.2 21.1 21.0 20.9 20.7 20.6 20.5 20.5 20.4 20.3 20.2 20.2 20.1 20.1 20.0 21.1 21.2 21.4 21.6 21.3 21.2 21.2 21.2 21.2 21.1 21.0 21.0 21.0 21.0 20.9 20.7 20.6 20.5 20.4 20.3 20.3 20.2 20.2 20.1 20.0 20.0 21.0 21.1 21.2 21.2 21.0 21.0 21.0 21.0 21.0 20.9 20.8 20.8 20.8 20.8 20.8 20.7 20.5 20.4 20.4 20.3 20.3 20.2 20.1 20.1 20.0 20.0 21.0 21.0 20.8 20.9 20.8 20.8 20.8 20.9 20.9 20.8 20.7 20.7 20.6 20.7 20.7 20.6 20.5 20.4 20.3 20.3 20.2 20.2 20.1 20.1 20.0 20.0 20.8 20.7 20.5 20.7 20.7 20.7 20.7 20.7 20.7 20.7 20.6 20.6 20.5 20.5 20.6 20.6 20.5 20.4 20.3 20.3 20.2 20.2 20.1 20.1 20.0 20.0 20.4 20.4 20.4 20.5 20.6 20.6 20.6 20.6 20.6 20.6 20.5 20.5 20.4 20.4 20.4 20.5 20.5 20.4 20.3 20.2 20.2 20.1 20.1 20.1 20.0 20.0 20.3 20.3 20.4 20.5 20.5 20.5 20.5 20.5 20.5 20.5 20.4 20.4 20.4 20.4 20.4 20.4 20.4 20.4 20.3 20.2 20.2 20.1 20.1 20.1 20.0 20.0 20.2 20.3 20.3 20.4 20.4 20.4 20.4 20.4 20.4 20.4 20.4 20.3 20.3 20.3 20.3 20.3 20.3 20.3 20.3 20.2 20.2 20.1 20.1 20.1 20.0 20.0 20.2 20.2 20.3 20.3 20.3 20.3 20.3 20.3 20.4 20.3 20.3 20.3 20.3 20.2 20.2 20.2 20.2 20.2 20.3 20.2 20.2 20.1 20.1 20.0 20.0 20.0 20.2 20.2 20.2 20.3 20.3 20.3 20.3 20.3 20.3 20.3 20.2 20.2 20.2 20.2 20.2 20.2 20.2 20.2 20.2 20.2 20.2 20.1 20.1 20.0 20.0 20.0 20.1 20.2 20.2 20.2 20.2 20.2 20.2 20.2 20.2 20.2 20.2 20.2 20.2 20.1 20.1 20.1 20.1 20.1 20.1 20.2 20.2 20.1 20.1 20.0 20.0 20.0 20.1 20.1 20.2 20.2 20.2 20.1 20.1 20.2 20.2 20.2 20.1 20.1 20.1 20.1 20.1 20.1 20.1 20.1 20.1 20.1 20.1 20.1 20.1 20.0 20.0 20.0 20.1 20.1 20.1 20.1 20.1 20.1 20.1 20.1 20.1 20.1 20.1 20.1 20.1 20.1 20.1 20.1 20.1 20.1 20.1 20.1 20.1 20.1 20.1 20.0 20.0 20.0 20.1 20.1 20.1 20.1 20.1 20.1 20.1 20.1 20.1 20.1 20.1 20.1 20.1 20.1 20.0 20.0 20.0 20.0 20.0 20.0 20.0 20.0 20.0 20.0 20.0 20.0 20.0 20.0 20.0 20.0 20.0 20.0 20.0 20.0 20.0 20.0 20.0 20.0 20.0 20.0 20.0 20.0 20.0 20.0 20.0 20.0 20.0 20.0 20.0 20.0 20.0 20.0 20.0 20.0 20.0 20.0 20.0 20.0 20.0 20.0 20.0 20.0 20.0 20.0 20.0 20.0 20.0 20.0 20.0 20.0 20.0 20.0 20.0 20.0 20.0 20.0 20.0 20.0 24.2 26.3 27.5 31.6 40.3 40.1 33.5 31.3 28.7 26.9 25.5 24.7 24.0 23.4 22.9 22.5 22.1 21.7 21.4 21.1 20.9 20.6 20.4 20.2 20.1 20.1 24.2 24.8 25.6 26.9 28.5 28.8 28.3 27.7 26.4 25.4 24.7 24.1 23.6 23.1 22.6 22.2 21.8 21.5 21.3 21.0 20.8 20.6 20.4 20.2 20.1 20.1 23.5 24.1 24.8 25.7 26.4 26.7 26.8 26.2 25.2 24.5 24.0 23.5 23.0 22.7 22.3 22.0 21.7 21.4 21.1 20.9 20.7 20.5 20.4 20.2 20.1 20.1 23.0 23.5 24.1 24.8 25.4 25.6 25.6 25.1 24.4 23.9 23.4 23.0 22.6 22.3 22.0 21.8 21.5 21.3 21.0 20.8 20.7 20.5 20.3 20.2 20.1 20.0 22.7 23.1 23.7 24.1 24.5 24.6 24.6 24.3 23.8 23.3 22.9 22.6 22.3 22.1 21.8 21.6 21.4 21.2 21.0 20.8 20.6 20.5 20.3 20.2 20.1 20.0 22.5 23.0 23.5 23.8 23.8 23.8 23.8 23.6 23.2 22.9 22.5 22.3 22.0 21.8 21.6 21.4 21.2 21.1 20.9 20.7 20.6 20.4 20.3 20.2 20.1 20.0 22.6 23.2 23.6 23.6 23.3 23.2 23.1 23.0 22.7 22.5 22.3 22.0 21.8 21.6 21.4 21.3 21.1 21.0 20.8 20.7 20.5 20.4 20.3 20.2 20.1 20.0 22.9 23.6 23.9 23.7 23.0 22.6 22.6 22.5 22.3 22.2 22.0 21.8 21.6 21.4 21.3 21.1 21.0 20.9 20.7 20.6 20.5 20.4 20.3 20.2 20.1 20.0 23.3 24.2 24.3 23.7 22.7 22.2 22.2 22.1 22.0 21.8 21.8 21.6 21.5 21.3 21.1 21.0 20.9 20.8 20.7 20.5 20.4 20.3 20.2 20.1 20.1 20.0 22.6 23.1 23.3 23.0 22.2 21.9 21.9 21.8 21.7 21.6 21.5 21.4 21.3 21.2 21.0 20.9 20.8 20.7 20.6 20.5 20.4 20.3 20.2 20.1 20.1 20.0 21.6 21.6 21.9 22.2 21.7 21.6 21.5 21.5 21.5 21.3 21.2 21.2 21.2 21.1 21.0 20.8 20.7 20.6 20.5 20.4 20.3 20.3 20.2 20.1 20.1 20.0 21.4 21.4 21.5 21.6 21.4 21.3 21.3 21.3 21.3 21.2 21.1 21.0 21.0 21.0 20.9 20.8 20.6 20.5 20.5 20.4 20.3 20.2 20.2 20.1 20.1 20.0 21.3 21.2 21.1 21.2 21.1 21.1 21.1 21.1 21.1 21.0 20.9 20.9 20.8 20.8 20.8 20.7 20.6 20.5 20.4 20.3 20.3 20.2 20.2 20.1 20.0 20.0 21.1 20.9 20.7 20.9 20.9 20.9 20.9 21.0 21.0 20.9 20.8 20.7 20.7 20.7 20.7 20.7 20.6 20.5 20.4 20.3 20.2 20.2 20.1 20.1 20.0 20.0 20.8 20.6 20.5 20.7 20.8 20.8 20.8 20.8 20.8 20.8 20.7 20.6 20.6 20.6 20.6 20.6 20.5 20.4 20.4 20.3 20.2 20.2 20.1 20.1 20.0 20.0 20.5 20.4 20.4 20.6 20.7 20.7 20.7 20.7 20.7 20.6 20.6 20.5 20.5 20.5 20.5 20.5 20.5 20.4 20.3 20.3 20.2 20.2 20.1 20.1 20.0 20.0 20.3 20.3 20.4 20.5 20.6 20.5 20.6 20.6 20.6 20.6 20.5 20.4 20.4 20.4 20.4 20.4 20.4 20.4 20.3 20.3 20.2 20.1 20.1 20.1 20.0 20.0 20.2 20.3 20.4 20.4 20.5 20.4 20.5 20.5 20.5 20.5 20.4 20.4 20.4 20.3 20.3 20.3 20.3 20.3 20.3 20.3 20.2 20.1 20.1 20.1 20.0 20.0 20.2 20.2 20.3 20.4 20.4 20.4 20.4 20.4 20.4 20.4 20.3 20.3 20.3 20.3 20.3 20.3 20.2 20.3 20.3 20.2 20.2 20.1 20.1 20.1 20.0 20.0 20.2 20.2 20.3 20.3 20.3 20.3 20.3 20.3 20.3 20.3 20.3 20.2 20.2 20.2 20.2 20.2 20.2 20.2 20.2 20.2 20.2 20.1 20.1 20.0 20.0 20.0 20.2 20.2 20.2 20.3 20.2 20.2 20.2 20.3 20.3 20.2 20.2 20.2 20.2 20.2 20.2 20.2 20.1 20.1 20.1 20.2 20.1 20.1 20.1 20.0 20.0 20.0 20.1 20.1 20.2 20.2 20.2 20.2 20.2 20.2 20.2 20.2 20.2 20.2 20.1 20.1 20.1 20.1 20.1 20.1 20.1 20.1 20.1 20.1 20.1 20.0 20.0 20.0 20.1 20.1 20.1 20.1 20.1 20.1 20.1 20.1 20.1 20.1 20.1 20.1 20.1 20.1 20.1 20.1 20.1 20.1 20.1 20.1 20.1 20.1 20.1 20.0 20.0 20.0 20.1 20.1 20.1 20.1 20.1 20.1 20.1 20.1 20.1 20.1 20.1 20.1 20.1 20.1 20.1 20.1 20.0 20.0 20.0 20.0 20.0 20.0 20.0 20.0 20.0 20.0 20.0 20.0 20.0 20.0 20.0 20.0 20.0 20.0 20.0 20.0 20.0 20.0 20.0 20.0 20.0 20.0 20.0 20.0 20.0 20.0 20.0 20.0 20.0 20.0 20.0 20.0 20.0 20.0 20.0 20.0 20.0 20.0 20.0 20.0 20.0 20.0 20.0 20.0 20.0 20.0 20.0 20.0 20.0 20.0 20.0 20.0 20.0 20.0 20.0 20.0 20.0 20.0 26.6 29.5 28.1 30.9 37.6 37.3 33.0 31.6 29.0 27.0 25.8 25.0 24.2 23.5 23.0 22.5 22.0 21.7 21.4 21.2 20.9 20.7 20.5 20.3 20.1 20.1 24.4 24.9 25.7 27.2 28.8 28.9 28.3 27.6 26.6 25.7 25.0 24.4 23.8 23.2 22.7 22.3 21.9 21.6 21.3 21.1 20.9 20.7 20.5 20.3 20.1 20.1 23.6 24.1 25.0 26.1 26.8 26.9 26.8 26.2 25.3 24.7 24.2 23.7 23.3 22.9 22.5 22.1 21.8 21.5 21.2 21.0 20.8 20.6 20.4 20.3 20.1 20.1 23.2 23.7 24.5 25.3 25.7 25.6 25.6 25.2 24.5 24.0 23.5 23.2 22.8 22.5 22.2 21.9 21.7 21.4 21.2 20.9 20.7 20.6 20.4 20.2 20.1 20.1 22.9 23.4 24.1 24.6 24.7 24.6 24.6 24.3 23.9 23.5 23.1 22.8 22.5 22.3 22.0 21.8 21.5 21.3 21.1 20.9 20.7 20.5 20.4 20.2 20.1 20.1 22.8 23.3 24.0 24.3 24.1 24.0 23.8 23.6 23.3 23.0 22.7 22.5 22.3 22.0 21.8 21.6 21.4 21.2 21.0 20.8 20.7 20.5 20.4 20.2 20.1 20.1 23.0 23.5 24.1 24.1 23.6 23.4 23.2 23.0 22.8 22.6 22.4 22.2 22.0 21.8 21.6 21.5 21.3 21.1 20.9 20.7 20.6 20.5 20.3 20.2 20.1 20.0 23.1 23.8 24.4 24.2 23.3 22.8 22.7 22.6 22.4 22.3 22.1 21.9 21.8 21.6 21.4 21.3 21.2 21.0 20.8 20.7 20.5 20.4 20.3 20.2 20.1 20.0 23.2 24.2 24.7 24.0 22.9 22.4 22.3 22.3 22.1 22.0 21.8 21.7 21.6 21.4 21.3 21.2 21.0 20.9 20.8 20.6 20.5 20.4 20.3 20.2 20.1 20.0 22.6 23.6 23.9 23.0 22.3 22.0 22.0 22.0 21.9 21.7 21.6 21.5 21.4 21.3 21.2 21.0 20.9 20.8 20.7 20.6 20.4 20.3 20.2 20.2 20.1 20.0 21.8 22.3 22.5 22.1 21.8 21.7 21.7 21.7 21.6 21.5 21.4 21.3 21.2 21.2 21.1 20.9 20.8 20.7 20.6 20.5 20.4 20.3 20.2 20.1 20.1 20.0 21.7 21.9 21.9 21.6 21.4 21.5 21.5 21.5 21.4 21.3 21.2 21.1 21.1 21.0 20.9 20.8 20.7 20.6 20.6 20.5 20.4 20.3 20.2 20.1 20.1 20.0 21.5 21.5 21.3 21.2 21.2 21.3 21.3 21.3 21.2 21.1 21.0 21.0 20.9 20.9 20.8 20.8 20.7 20.6 20.5 20.4 20.3 20.3 20.2 20.1 20.1 20.0 21.3 21.0 20.9 21.0 21.0 21.1 21.1 21.1 21.1 21.0 20.9 20.9 20.8 20.8 20.7 20.7 20.6 20.5 20.5 20.4 20.3 20.2 20.2 20.1 20.1 20.0 20.9 20.7 20.7 20.8 20.9 20.9 20.9 21.0 21.0 20.9 20.8 20.8 20.7 20.7 20.7 20.6 20.6 20.5 20.4 20.4 20.3 20.2 20.2 20.1 20.0 20.0 20.5 20.5 20.5 20.7 20.8 20.8 20.8 20.8 20.8 20.8 20.7 20.6 20.6 20.6 20.6 20.5 20.5 20.5 20.4 20.3 20.3 20.2 20.1 20.1 20.0 20.0 20.4 20.4 20.5 20.6 20.7 20.6 20.7 20.7 20.7 20.6 20.6 20.5 20.5 20.5 20.5 20.5 20.4 20.4 20.4 20.3 20.2 20.2 20.1 20.1 20.0 20.0 20.3 20.4 20.4 20.5 20.6 20.5 20.5 20.6 20.6 20.6 20.5 20.4 20.4 20.4 20.4 20.4 20.4 20.4 20.3 20.3 20.2 20.2 20.1 20.1 20.0 20.0 20.3 20.3 20.4 20.4 20.4 20.4 20.4 20.5 20.5 20.5 20.4 20.4 20.3 20.3 20.3 20.3 20.3 20.3 20.3 20.3 20.2 20.2 20.1 20.1 20.0 20.0 20.2 20.3 20.3 20.3 20.3 20.3 20.4 20.4 20.4 20.4 20.3 20.3 20.3 20.3 20.3 20.3 20.3 20.2 20.2 20.2 20.2 20.2 20.1 20.1 20.0 20.0 20.2 20.2 20.3 20.3 20.3 20.2 20.3 20.3 20.3 20.3 20.3 20.2 20.2 20.2 20.2 20.2 20.2 20.2 20.2 20.2 20.2 20.1 20.1 20.1 20.0 20.0 20.2 20.2 20.2 20.2 20.2 20.2 20.2 20.2 20.2 20.2 20.2 20.2 20.2 20.2 20.2 20.1 20.1 20.1 20.1 20.1 20.1 20.1 20.1 20.1 20.0 20.0 20.1 20.1 20.2 20.1 20.1 20.1 20.1 20.2 20.2 20.2 20.2 20.1 20.1 20.1 20.1 20.1 20.1 20.1 20.1 20.1 20.1 20.1 20.1 20.0 20.0 20.0 20.1 20.1 20.1 20.1 20.1 20.1 20.1 20.1 20.1 20.1 20.1 20.1 20.1 20.1 20.1 20.1 20.1 20.1 20.1 20.1 20.0 20.0 20.1 20.0 20.0 20.0 20.0 20.0 20.0 20.0 20.0 20.0 20.0 20.0 20.0 20.0 20.0 20.0 20.0 20.0 20.0 20.0 20.0 20.0 20.0 20.0 20.0 20.0 20.0 20.0 20.0 20.0 20.0 20.0 20.0 20.0 20.0 20.0 20.0 20.0 20.0 20.0 20.0 20.0 20.0 20.0 20.0 20.0 20.0 20.0 20.0 20.0 20.0 20.0 20.0 20.0 20.0 20.0 29.6 34.1 29.8 29.7 32.2 32.4 31.8 31.0 28.9 27.1 25.9 25.1 24.2 23.5 23.0 22.4 22.0 21.7 21.5 21.2 21.0 20.8 20.5 20.3 20.2 20.1 24.6 25.2 26.0 27.3 28.5 28.7 28.3 27.6 26.7 25.9 25.1 24.5 23.9 23.3 22.8 22.3 21.9 21.6 21.3 21.1 20.9 20.7 20.5 20.3 20.1 20.1 23.7 24.3 25.3 26.3 26.8 27.1 26.8 26.1 25.5 24.9 24.3 23.9 23.4 23.0 22.6 22.2 21.8 21.5 21.3 21.0 20.8 20.6 20.5 20.3 20.1 20.1 23.3 23.9 24.8 25.6 25.8 25.7 25.6 25.2 24.6 24.1 23.7 23.4 23.0 22.6 22.4 22.1 21.8 21.5 21.2 21.0 20.8 20.6 20.4 20.3 20.1 20.1 23.1 23.7 24.6 25.1 25.0 24.7 24.6 24.4 23.9 23.5 23.3 23.0 22.7 22.4 22.1 21.9 21.6 21.4 21.2 20.9 20.8 20.6 20.4 20.3 20.1 20.1 23.1 23.7 24.4 24.8 24.6 24.2 24.0 23.8 23.4 23.0 22.8 22.6 22.4 22.2 22.0 21.7 21.5 21.3 21.0 20.9 20.7 20.5 20.4 20.3 20.1 20.1 23.1 23.6 24.4 24.7 24.2 23.7 23.5 23.3 23.0 22.7 22.5 22.3 22.2 22.0 21.8 21.6 21.4 21.2 21.0 20.8 20.6 20.5 20.4 20.2 20.1 20.1 22.9 23.5 24.4 24.4 23.5 23.0 23.0 22.9 22.7 22.4 22.2 22.0 21.9 21.8 21.6 21.5 21.3 21.1 20.9 20.7 20.6 20.5 20.3 20.2 20.1 20.1 22.5 23.5 24.3 23.6 22.7 22.5 22.6 22.5 22.3 22.1 21.9 21.8 21.6 21.6 21.4 21.3 21.2 21.0 20.9 20.7 20.5 20.4 20.3 20.2 20.1 20.0 22.0 22.9 23.1 22.5 22.1 22.2 22.2 22.2 22.0 21.9 21.7 21.6 21.5 21.4 21.3 21.2 21.0 20.9 20.8 20.6 20.5 20.4 20.3 20.2 20.1 20.0 21.7 22.0 21.9 21.7 21.7 21.9 21.9 21.9 21.8 21.7 21.5 21.4 21.3 21.2 21.2 21.1 20.9 20.8 20.7 20.6 20.5 20.4 20.3 20.2 20.1 20.0 21.5 21.5 21.4 21.4 21.5 21.6 21.7 21.6 21.6 21.5 21.4 21.3 21.2 21.1 21.0 21.0 20.9 20.8 20.7 20.6 20.4 20.3 20.2 20.2 20.1 20.0 21.3 21.2 21.1 21.2 21.3 21.4 21.4 21.4 21.4 21.3 21.2 21.1 21.1 21.0 20.9 20.9 20.8 20.7 20.6 20.5 20.4 20.3 20.2 20.1 20.1 20.0 21.1 20.9 20.9 21.0 21.2 21.2 21.3 21.3 21.2 21.2 21.1 21.0 20.9 20.9 20.8 20.8 20.7 20.6 20.6 20.5 20.4 20.3 20.2 20.1 20.1 20.0 20.8 20.7 20.8 20.9 21.0 21.1 21.1 21.1 21.1 21.0 20.9 20.9 20.8 20.8 20.7 20.7 20.6 20.6 20.5 20.4 20.3 20.3 20.2 20.1 20.1 20.0 20.6 20.6 20.7 20.8 20.9 20.9 20.9 21.0 21.0 20.9 20.8 20.7 20.7 20.7 20.7 20.6 20.6 20.6 20.5 20.4 20.3 20.2 20.2 20.1 20.1 20.0 20.5 20.6 20.7 20.7 20.7 20.7 20.8 20.8 20.8 20.8 20.7 20.6 20.6 20.6 20.6 20.6 20.5 20.5 20.5 20.4 20.3 20.2 20.2 20.1 20.1 20.0 20.4 20.5 20.6 20.6 20.6 20.6 20.6 20.7 20.7 20.7 20.6 20.5 20.5 20.5 20.5 20.5 20.5 20.4 20.4 20.3 20.3 20.2 20.2 20.1 20.1 20.0 20.4 20.5 20.5 20.5 20.5 20.5 20.5 20.6 20.6 20.6 20.5 20.4 20.4 20.4 20.4 20.4 20.4 20.4 20.4 20.3 20.3 20.2 20.2 20.1 20.0 20.0 20.3 20.4 20.4 20.4 20.4 20.4 20.4 20.4 20.5 20.5 20.4 20.4 20.3 20.3 20.3 20.3 20.3 20.3 20.3 20.3 20.2 20.2 20.2 20.1 20.0 20.0 20.3 20.3 20.3 20.3 20.3 20.3 20.3 20.3 20.4 20.4 20.4 20.3 20.3 20.3 20.3 20.3 20.3 20.3 20.3 20.2 20.2 20.2 20.1 20.1 20.0 20.0 20.2 20.2 20.3 20.3 20.2 20.2 20.2 20.2 20.3 20.3 20.3 20.2 20.2 20.2 20.2 20.2 20.2 20.2 20.2 20.2 20.2 20.1 20.1 20.1 20.0 20.0 20.2 20.2 20.2 20.2 20.1 20.1 20.1 20.2 20.2 20.2 20.2 20.2 20.1 20.1 20.1 20.1 20.1 20.1 20.2 20.1 20.1 20.1 20.1 20.1 20.0 20.0 20.1 20.1 20.1 20.1 20.1 20.1 20.1 20.1 20.1 20.1 20.1 20.1 20.1 20.1 20.1 20.1 20.1 20.1 20.1 20.1 20.1 20.1 20.1 20.1 20.0 20.0 20.1 20.1 20.1 20.1 20.0 20.0 20.0 20.0 20.1 20.1 20.1 20.0 20.0 20.0 20.0 20.0 20.0 20.0 20.1 20.1 20.0 20.0 20.0 20.0 20.0 20.0 20.0 20.0 20.0 20.0 20.0 20.0 20.0 20.0 20.0 20.0 20.0 20.0 20.0 20.0 20.0 20.0 20.0 20.0 20.0 20.0 20.0 20.0 20.0 20.0 20.0 20.0 29.2 34.1 31.2 30.9 31.5 31.0 30.9 30.0 28.5 27.1 26.0 25.1 24.3 23.6 23.0 22.4 22.0 21.8 21.5 21.3 21.1 20.8 20.6 20.3 20.2 20.1 25.6 26.7 27.7 28.4 28.3 28.5 28.4 27.6 26.7 25.9 25.1 24.6 24.1 23.5 22.9 22.3 21.9 21.6 21.3 21.1 21.0 20.7 20.5 20.3 20.1 20.1 24.3 25.2 26.4 26.9 26.8 27.2 26.9 26.2 25.5 24.9 24.4 24.0 23.6 23.2 22.7 22.2 21.9 21.5 21.3 21.1 20.8 20.7 20.5 20.3 20.1 20.1 23.6 24.2 25.1 25.7 25.9 25.9 25.7 25.2 24.6 24.2 23.9 23.5 23.2 22.9 22.5 22.2 21.9 21.5 21.3 21.0 20.8 20.6 20.4 20.3 20.1 20.1 23.5 24.1 24.9 25.3 25.2 24.9 24.7 24.4 23.9 23.6 23.4 23.2 22.9 22.6 22.3 22.0 21.7 21.4 21.2 21.0 20.8 20.6 20.4 20.3 20.1 20.1 23.4 24.0 24.7 25.1 24.8 24.4 24.1 23.9 23.5 23.1 22.9 22.8 22.6 22.3 22.1 21.8 21.6 21.3 21.1 20.9 20.7 20.6 20.4 20.3 20.1 20.1 23.2 23.7 24.5 25.0 24.5 23.9 23.6 23.5 23.1 22.8 22.5 22.4 22.3 22.1 21.9 21.7 21.5 21.2 21.0 20.8 20.7 20.5 20.4 20.2 20.1 20.1 22.9 23.5 24.3 24.4 23.7 23.2 23.2 23.1 22.8 22.5 22.3 22.1 22.0 21.9 21.8 21.6 21.4 21.2 20.9 20.8 20.6 20.5 20.3 20.2 20.1 20.1 22.4 23.3 23.8 23.3 22.7 22.7 22.7 22.7 22.5 22.2 22.0 21.8 21.7 21.7 21.6 21.4 21.3 21.1 20.9 20.7 20.6 20.4 20.3 20.2 20.1 20.1 22.0 22.5 22.7 22.3 22.2 22.3 22.4 22.3 22.2 22.0 21.9 21.7 21.6 21.5 21.4 21.3 21.1 21.0 20.9 20.7 20.5 20.4 20.3 20.2 20.1 20.1 21.6 21.7 21.8 21.8 21.9 22.1 22.1 22.0 22.0 21.8 21.7 21.6 21.4 21.3 21.2 21.1 21.0 20.9 20.8 20.7 20.5 20.4 20.3 20.2 20.1 20.0 21.3 21.4 21.4 21.6 21.7 21.8 21.8 21.8 21.7 21.7 21.5 21.4 21.3 21.2 21.1 21.0 21.0 20.9 20.8 20.6 20.5 20.4 20.3 20.2 20.1 20.0 21.1 21.2 21.3 21.4 21.5 21.6 21.6 21.6 21.6 21.5 21.4 21.3 21.1 21.1 21.0 20.9 20.9 20.8 20.7 20.6 20.5 20.4 20.3 20.2 20.1 20.0 20.9 21.0 21.1 21.3 21.3 21.4 21.4 21.5 21.4 21.4 21.3 21.1 21.0 21.0 20.9 20.8 20.8 20.7 20.7 20.6 20.5 20.4 20.3 20.2 20.1 20.0 20.8 20.9 21.0 21.1 21.2 21.2 21.2 21.3 21.3 21.2 21.1 21.0 20.9 20.9 20.8 20.8 20.7 20.7 20.6 20.6 20.4 20.3 20.2 20.1 20.1 20.0 20.7 20.8 20.9 21.0 21.0 21.0 21.1 21.1 21.1 21.1 21.0 20.9 20.8 20.8 20.7 20.7 20.7 20.6 20.6 20.5 20.4 20.3 20.2 20.1 20.1 20.0 20.6 20.7 20.8 20.9 20.9 20.8 20.9 20.9 21.0 20.9 20.9 20.8 20.7 20.7 20.6 20.6 20.6 20.6 20.5 20.4 20.4 20.3 20.2 20.1 20.1 20.0 20.5 20.6 20.7 20.8 20.7 20.7 20.7 20.8 20.8 20.8 20.7 20.6 20.6 20.6 20.6 20.6 20.6 20.5 20.5 20.4 20.3 20.3 20.2 20.1 20.1 20.0 20.5 20.5 20.6 20.6 20.6 20.5 20.6 20.6 20.7 20.7 20.6 20.5 20.5 20.5 20.5 20.5 20.5 20.5 20.4 20.4 20.3 20.3 20.2 20.1 20.0 20.0 20.4 20.5 20.5 20.5 20.5 20.4 20.4 20.5 20.6 20.6 20.5 20.4 20.4 20.4 20.4 20.4 20.4 20.4 20.4 20.3 20.3 20.2 20.2 20.1 20.0 20.0 20.3 20.4 20.4 20.4 20.4 20.3 20.3 20.4 20.4 20.5 20.4 20.3 20.3 20.3 20.3 20.3 20.3 20.3 20.3 20.3 20.3 20.2 20.2 20.1 20.0 20.0 20.3 20.3 20.3 20.3 20.3 20.2 20.3 20.3 20.3 20.4 20.3 20.3 20.2 20.2 20.2 20.2 20.2 20.2 20.2 20.2 20.2 20.2 20.1 20.1 20.0 20.0 20.2 20.2 20.2 20.2 20.2 20.2 20.2 20.2 20.2 20.2 20.2 20.2 20.2 20.2 20.2 20.2 20.2 20.2 20.2 20.2 20.2 20.1 20.1 20.1 20.0 20.0 20.1 20.1 20.1 20.1 20.1 20.1 20.1 20.1 20.1 20.1 20.1 20.1 20.1 20.1 20.1 20.1 20.1 20.1 20.1 20.1 20.1 20.1 20.1 20.1 20.0 20.0 20.1 20.1 20.1 20.1 20.1 20.1 20.1 20.1 20.1 20.1 20.1 20.1 20.0 20.0 20.0 20.0 20.0 20.1 20.1 20.1 20.1 20.1 20.0 20.0 20.0 20.0 20.0 20.0 20.0 20.0 20.0 20.0 20.0 20.0 20.0 20.0 20.0 20.0 20.0 20.0 20.0 20.0 20.0 20.0 20.0 20.0 20.0 20.0 20.0 20.0 20.0 20.0 31.1 36.5 34.8 34.7 33.7 31.8 31.5 30.4 28.7 27.3 26.1 25.2 24.5 23.8 23.1 22.6 22.2 22.0 21.8 21.5 21.2 20.9 20.6 20.3 20.2 20.1 31.8 35.6 33.9 31.3 29.1 28.5 28.3 27.6 26.7 25.9 25.3 24.8 24.3 23.7 23.0 22.5 22.1 21.8 21.6 21.5 21.2 20.9 20.6 20.3 20.1 20.1 28.2 31.5 30.3 28.4 27.1 27.2 27.0 26.3 25.6 25.0 24.6 24.3 24.0 23.5 22.9 22.4 22.1 21.9 21.7 21.5 21.2 20.8 20.5 20.3 20.1 20.1 24.3 25.3 25.7 25.8 26.0 26.2 25.9 25.2 24.7 24.3 24.1 23.9 23.5 23.1 22.7 22.3 22.1 21.9 21.7 21.5 21.1 20.7 20.5 20.3 20.1 20.1 23.7 24.3 25.0 25.4 25.3 25.3 25.0 24.5 24.0 23.7 23.5 23.4 23.1 22.8 22.5 22.2 22.0 21.8 21.5 21.2 20.9 20.6 20.4 20.3 20.1 20.1 23.6 24.2 24.9 25.2 24.9 24.6 24.4 24.0 23.6 23.2 23.0 22.9 22.8 22.6 22.3 22.0 21.8 21.6 21.3 20.9 20.7 20.6 20.4 20.3 20.1 20.1 23.4 23.9 24.6 25.0 24.5 24.0 23.8 23.6 23.2 22.9 22.7 22.5 22.5 22.3 22.1 21.9 21.6 21.4 21.1 20.8 20.6 20.5 20.4 20.2 20.1 20.1 23.2 23.7 24.4 24.4 23.8 23.5 23.3 23.2 23.0 22.7 22.4 22.2 22.1 22.0 21.9 21.7 21.5 21.3 21.0 20.8 20.6 20.5 20.3 20.2 20.1 20.1 22.8 23.4 23.7 23.4 23.0 22.9 22.9 22.8 22.7 22.5 22.2 21.9 21.8 21.8 21.7 21.6 21.4 21.2 21.0 20.8 20.6 20.4 20.3 20.2 20.1 20.1 22.3 22.6 22.8 22.6 22.5 22.6 22.6 22.5 22.4 22.3 22.0 21.8 21.6 21.6 21.5 21.4 21.3 21.1 21.0 20.7 20.5 20.4 20.3 20.2 20.1 20.1 21.7 21.8 22.0 22.1 22.1 22.3 22.3 22.2 22.2 22.0 21.8 21.6 21.5 21.4 21.3 21.2 21.2 21.1 20.9 20.7 20.6 20.4 20.3 20.2 20.1 20.1 21.5 21.5 21.7 21.8 21.9 22.0 22.1 22.0 21.9 21.9 21.7 21.5 21.4 21.3 21.2 21.1 21.1 21.0 20.9 20.8 20.6 20.5 20.3 20.2 20.1 20.1 21.3 21.3 21.5 21.6 21.7 21.7 21.8 21.8 21.8 21.7 21.6 21.4 21.2 21.1 21.1 21.0 21.0 20.9 20.9 20.8 20.6 20.5 20.3 20.2 20.1 20.1 21.1 21.2 21.3 21.5 21.5 21.5 21.6 21.6 21.6 21.6 21.4 21.3 21.1 21.1 21.0 20.9 20.9 20.9 20.9 20.8 20.6 20.5 20.3 20.2 20.1 20.0 21.0 21.1 21.2 21.3 21.3 21.3 21.3 21.4 21.4 21.4 21.3 21.2 21.0 21.0 20.9 20.8 20.8 20.8 20.8 20.7 20.5 20.4 20.3 20.2 20.1 20.0 20.8 20.9 21.0 21.1 21.1 21.1 21.1 21.2 21.2 21.2 21.1 21.0 20.9 20.9 20.8 20.8 20.7 20.7 20.6 20.5 20.4 20.3 20.2 20.1 20.1 20.0 20.7 20.8 20.9 21.0 21.0 20.9 20.9 21.0 21.1 21.0 21.0 20.9 20.8 20.8 20.7 20.7 20.7 20.6 20.5 20.5 20.4 20.3 20.2 20.1 20.1 20.0 20.6 20.7 20.8 20.8 20.8 20.8 20.8 20.9 20.9 20.9 20.9 20.7 20.7 20.6 20.6 20.7 20.6 20.6 20.5 20.5 20.4 20.3 20.2 20.1 20.1 20.0 20.5 20.6 20.7 20.7 20.7 20.6 20.6 20.8 20.9 20.9 20.8 20.6 20.5 20.5 20.6 20.6 20.6 20.5 20.5 20.4 20.4 20.3 20.2 20.1 20.1 20.0 20.4 20.5 20.6 20.6 20.6 20.5 20.5 20.6 20.7 20.8 20.7 20.5 20.5 20.4 20.5 20.5 20.5 20.4 20.4 20.4 20.4 20.3 20.2 20.1 20.1 20.0 20.4 2