<?xml version="1.0"?>
<VTKFile type="ImageData" version="1.0" byte_order="LittleEndian" header_type="UInt64">
<ImageData WholeExtent="0 25 0 25 1 1"
 Origin="0.0000 0.0000 0.0000" Spacing="0.6000 0.6000 0.6000">
<Piece Extent="0 25 0 25 1 1">
<PointData>
<DataArray Name="TEMPERATURE" NumberOfComponents="1" type="Float32" format="ascii">
23.5 23.9 23.9 23.8 23.3 24.0 24.6 24.8 25.7 26.1 26.3 27.6 28.4 27.0 25.5 24.6 25.0 25.6 26.4 27.6 29.0 30.3 31.2 31.6 32.1 33.0 24.1 24.6 24.8 24.9 25.1 25.9 26.3 26.4 27.4 28.5 29.6 30.2 29.5 27.8 26.7 26.4 27.0 28.3 29.8 30.8 31.3 31.8 33.2 34.3 34.5 34.9 24.0 24.6 25.0 25.4 26.3 27.0 27.0 27.2 28.1 29.6 31.0 30.8 29.0 27.7 27.5 28.4 29.5 30.9 32.6 33.2 33.0 33.4 35.4 37.4 37.0 35.9 23.1 23.6 24.5 25.5 26.3 26.6 26.5 26.6 27.5 28.7 29.3 28.8 27.7 27.2 27.6 29.2 31.4 33.3 34.5 34.6 34.5 35.0 36.5 37.0 35.4 33.5 22.1 22.8 24.1 25.5 26.4 26.7 26.6 26.8 27.4 28.3 28.7 28.2 27.5 27.4 28.4 30.9 34.5 36.8 37.3 36.9 36.1 35.7 35.8 34.8 33.1 33.8 21.5 22.5 24.2 25.6 26.4 26.4 26.4 26.7 26.9 27.5 27.8 27.4 27.1 27.6 29.8 33.6 36.7 37.3 36.6 35.8 34.9 35.0 37.2 39.1 38.8 41.6 21.4 22.6 24.4 25.5 26.1 26.2 26.3 26.7 27.2 27.5 27.4 27.1 27.2 28.0 30.4 33.7 35.6 35.2 34.3 33.6 34.2 40.8 52.2 57.1 52.7 50.7 21.4 22.9 24.3 24.7 25.3 25.8 26.3 26.9 27.5 27.4 27.1 26.9 27.3 28.5 30.7 32.8 34.0 34.3 34.0 34.3 41.2 57.7 73.3 74.8 64.2 55.1 21.7 23.4 24.6 24.5 25.1 25.4 26.0 26.9 27.6 27.5 26.9 26.7 27.2 28.8 31.2 33.1 34.4 35.2 35.2 38.6 53.8 72.7 80.8 77.2 67.2 57.7 22.0 23.8 24.7 24.3 24.6 24.9 25.9 27.0 27.6 27.4 26.9 26.8 27.5 29.5 31.7 33.6 35.7 36.9 37.4 44.4 60.9 72.1 71.5 66.9 63.2 60.8 22.5 24.2 24.8 24.2 24.5 24.9 26.0 26.9 27.5 27.5 27.2 27.2 27.9 29.8 32.0 34.5 37.2 38.5 39.1 45.7 56.6 60.1 56.2 52.7 55.0 61.7 23.1 24.3 24.7 24.4 24.7 25.0 25.8 26.7 27.7 27.9 27.6 27.6 28.3 29.9 32.0 34.7 37.3 37.9 37.8 40.8 45.7 48.0 47.1 44.4 48.0 60.6 23.0 24.2 25.0 25.1 25.1 24.9 25.5 26.5 27.7 27.9 27.5 27.5 28.5 30.2 31.9 33.9 35.6 35.7 35.4 36.3 39.6 45.9 48.9 45.0 49.7 65.4 23.3 25.0 26.4 26.1 25.5 24.8 24.9 25.9 27.1 27.4 27.4 27.4 28.5 30.2 31.6 32.5 33.3 33.4 33.7 36.4 43.6 54.3 56.0 49.0 56.6 71.9 25.5 27.2 28.2 27.6 26.7 25.2 24.8 25.3 26.5 27.4 27.5 27.4 28.2 30.1 31.2 31.5 31.8 32.2 34.5 40.9 51.6 60.4 57.1 51.2 59.9 66.9 27.2 28.7 29.4 28.9 27.9 26.1 25.1 25.2 26.0 26.8 27.0 27.1 28.2 30.1 31.1 31.1 31.3 32.2 36.1 44.3 54.5 54.0 46.5 49.5 57.5 54.4 27.0 28.4 29.2 28.8 28.2 26.9 25.9 25.6 25.8 26.1 26.6 27.2 28.7 30.6 31.4 31.3 31.5 32.4 36.0 43.6 48.7 41.1 35.4 44.2 50.2 44.6 26.3 27.5 28.3 28.1 28.1 27.5 26.7 26.2 26.1 26.2 26.8 27.7 29.5 31.4 32.1 32.2 32.7 34.1 37.1 42.2 40.3 32.4 31.9 37.2 40.7 41.1 25.4 26.6 27.4 27.3 27.6 27.6 27.2 26.7 26.4 26.5 27.0 27.8 29.9 32.3 33.4 33.7 35.2 39.5 43.6 43.9 36.4 30.2 32.0 35.5 42.7 57.8 23.9 25.2 26.3 26.4 26.9 27.4 27.5 27.5 27.2 27.1 27.2 27.3 28.8 32.1 34.4 34.7 37.7 46.2 51.5 45.4 34.4 30.6 33.8 39.7 55.7 85.4 23.0 24.5 25.8 25.9 26.7 27.4 27.9 27.9 27.5 27.0 26.6 26.4 27.1 29.5 32.3 33.4 36.1 43.5 49.6 44.8 34.6 31.5 34.8 44.9 66.3 99.6 22.9 24.4 25.8 26.1 26.9 27.5 27.3 26.5 26.1 25.9 26.1 26.5 27.1 28.5 30.6 34.9 41.0 44.4 45.8 43.2 36.0 33.3 39.5 61.6 90.5 115.2 23.2 24.7 26.5 27.1 27.5 27.2 26.1 25.0 25.1 25.9 27.1 28.4 29.4 29.9 33.2 45.8 59.7 60.9 54.0 46.9 40.6 41.4 58.7 89.3 116.4 131.8 24.9 26.2 27.7 28.0 27.5 26.5 25.3 24.8 25.4 26.5 28.0 29.7 30.7 30.4 32.8 45.0 62.4 70.3 64.3 54.5 47.0 46.5 62.8 85.5 106.6 123.3 26.8 27.7 28.4 28.1 27.2 26.2 25.5 25.4 26.0 26.8 28.0 29.6 30.9 30.6 30.0 33.1 44.5 58.8 64.0 61.4 57.0 52.4 51.0 54.4 73.6 100.5 27.6 28.6 28.7 27.7 27.0 26.4 26.1 26.1 26.6 27.5 28.3 29.4 30.2 29.9 29.5 30.3 33.9 42.2 52.2 60.0 64.5 63.8 54.5 42.4 49.9 62.5 
</DataArray>
</PointData>
</Piece>
</ImageData>
</VTKFile>
