<?xml version="1.0"?>
<VTKFile type="ImageData" version="1.0" byte_order="LittleEndian" header_type="UInt64">
<ImageData WholeExtent="25 50 0 25 0 15"
 Origin="15.0000 0.0000 0.0000" Spacing="0.6000 0.6000 0.6000">
<Piece Extent="25 50 0 25 0 15">
<PointData>
<DataArray Name="TEMPERATURE" NumberOfComponents="1" type="Float32" format="ascii">
20.0 20.0 20.0 20.0 20.0 20.0 20.0 20.0 20.0 20.0 20.0 20.0 20.0 20.0 20.0 20.0 20.0 20.0 20.0 20.0 20.0 20.0 20.0 20.0 20.1 20.1 20.1 20.1 20.1 20.1 20.1 20.1 20.1 20.1 20.1 20.1 20.1 20.1 20.1 20.1 20.1 20.1 20.1 20.1 20.1 20.1 20.1 20.1 20.1 20.1 20.1 20.1 20.1 20.1 20.2 20.2 20.2 20.2 20.2 20.2 20.2 20.2 20.2 20.2 20.1 20.1 20.1 20.1 20.1 20.1 20.1 20.1 20.1 20.2 20.2 20.2 20.1 20.0 20.2 20.2 20.2 20.3 20.3 20.2 20.2 20.3 20.3 20.3 20.3 20.2 20.2 20.2 20.2 20.2 20.2 20.2 20.2 20.2 20.3 20.3 20.3 20.2 20.1 20.0 20.3 20.3 20.3 20.4 20.4 20.3 20.3 20.4 20.4 20.4 20.4 20.3 20.3 20.3 20.3 20.3 20.3 20.3 20.3 20.4 20.4 20.4 20.3 20.2 20.1 20.0 20.4 20.4 20.4 20.5 20.5 20.5 20.5 20.5 20.5 20.5 20.5 20.4 20.4 20.4 20.4 20.4 20.4 20.4 20.5 20.5 20.5 20.4 20.3 20.2 20.1 20.0 20.5 20.5 20.5 20.6 20.6 20.6 20.6 20.6 20.7 20.7 20.6 20.5 20.5 20.5 20.5 20.5 20.6 20.6 20.6 20.6 20.5 20.4 20.2 20.1 20.1 20.0 20.5 20.6 20.7 20.7 20.7 20.7 20.7 20.8 20.8 20.8 20.7 20.6 20.6 20.6 20.7 20.7 20.7 20.7 20.7 20.6 20.5 20.4 20.2 20.1 20.1 20.0 20.7 20.7 20.8 20.9 20.9 20.9 20.9 20.9 21.0 20.9 20.8 20.8 20.8 20.8 20.9 20.9 20.9 20.9 20.8 20.6 20.5 20.3 20.2 20.1 20.1 20.0 20.8 20.9 20.9 21.0 21.1 21.1 21.1 21.1 21.2 21.1 21.0 21.0 21.0 21.1 21.1 21.1 21.0 20.9 20.8 20.6 20.5 20.3 20.2 20.2 20.1 20.0 21.0 21.0 21.1 21.2 21.2 21.3 21.3 21.3 21.4 21.3 21.3 21.3 21.3 21.3 21.3 21.2 21.1 21.0 20.8 20.6 20.5 20.3 20.3 20.2 20.1 20.0 21.2 21.3 21.3 21.4 21.5 21.5 21.6 21.6 21.6 21.6 21.5 21.5 21.5 21.5 21.4 21.3 21.2 21.0 20.8 20.6 20.5 20.4 20.3 20.2 20.1 20.0 21.4 21.5 21.6 21.7 21.8 21.9 21.9 22.0 22.0 21.9 21.9 21.8 21.8 21.7 21.6 21.4 21.2 21.0 20.8 20.6 20.5 20.4 20.3 20.2 20.1 20.0 21.7 21.8 21.9 22.0 22.2 22.2 22.3 22.5 22.5 22.3 22.2 22.1 22.0 21.9 21.7 21.4 21.2 20.9 20.8 20.6 20.5 20.4 20.3 20.2 20.1 20.0 22.0 22.1 22.3 22.5 22.6 22.8 22.9 23.0 22.9 22.7 22.6 22.4 22.3 22.0 21.8 21.5 21.2 20.9 20.8 20.7 20.5 20.4 20.3 20.2 20.1 20.0 22.2 22.5 22.7 23.0 23.2 23.5 23.6 23.7 23.5 23.2 23.0 22.8 22.5 22.1 21.8 21.5 21.2 21.0 20.8 20.7 20.6 20.4 20.3 20.2 20.1 20.0 22.6 22.8 23.1 23.5 23.9 24.2 24.5 24.5 24.2 23.8 23.4 23.0 22.6 22.2 21.8 21.5 21.2 21.0 20.9 20.7 20.6 20.5 20.3 20.2 20.1 20.1 22.9 23.3 23.7 24.2 24.9 25.5 25.9 25.6 25.0 24.4 23.8 23.3 22.7 22.2 21.8 21.5 21.3 21.1 20.9 20.8 20.6 20.5 20.4 20.2 20.1 20.1 23.3 23.8 24.3 25.2 26.2 27.2 27.7 27.1 25.9 25.0 24.2 23.6 22.9 22.4 22.0 21.7 21.5 21.3 21.1 20.9 20.7 20.6 20.4 20.3 20.1 20.1 23.9 24.5 25.5 30.3 32.9 31.6 32.9 31.9 28.1 25.7 24.8 23.9 23.2 22.6 22.3 22.0 21.7 21.4 21.2 21.0 20.8 20.6 20.4 20.3 20.1 20.1 24.8 25.7 27.3 35.3 40.0 35.2 37.0 34.6 29.9 26.7 25.6 24.4 23.5 22.9 22.5 22.2 21.8 21.5 21.2 21.0 20.8 20.6 20.4 20.3 20.1 20.1 25.7 26.9 28.6 34.7 39.7 20.0 20.0 34.4 31.9 28.2 26.1 24.9 23.9 23.2 22.6 22.2 21.8 21.5 21.2 21.0 20.8 20.6 20.4 20.3 20.1 20.1 25.6 27.1 29.2 33.6 36.6 20.0 20.0 38.7 34.4 28.4 25.9 24.8 23.9 23.2 22.6 22.1 21.8 21.5 21.2 21.0 20.7 20.6 20.4 20.3 20.2 20.1 24.9 26.1 28.1 32.2 35.7 40.5 41.7 37.1 31.9 26.9 25.2 24.2 23.6 22.9 22.5 22.0 21.7 21.5 21.2 20.9 20.7 20.6 20.4 20.3 20.2 20.1 24.1 24.8 25.9 29.2 33.5 36.2 35.9 31.8 27.5 25.6 24.5 23.7 23.1 22.6 22.3 21.9 21.6 21.4 21.2 20.9 20.7 20.6 20.4 20.3 20.1 20.1 22.7 23.9 24.6 26.3 28.7 29.4 28.6 27.3 25.7 24.7 24.0 23.3 22.7 22.3 22.0 21.7 21.4 21.3 21.1 20.9 20.7 20.6 20.4 20.3 20.1 20.1 20.0 20.0 20.0 20.0 20.0 20.0 20.0 20.0 20.0 20.0 20.0 20.0 20.0 20.0 20.0 20.0 20.0 20.0 20.0 20.0 20.0 20.0 20.0 20.0 20.1 20.1 20.1 20.1 20.1 20.1 20.1 20.1 20.1 20.1 20.1 20.1 20.1 20.1 20.1 20.1 20.1 20.1 20.1 20.1 20.1 20.1 20.1 20.1 20.1 20.1 20.1 20.1 20.1 20.1 20.1 20.1 20.1 20.1 20.1 20.2 20.2 20.2 20.2 20.1 20.1 20.1 20.1 20.1 20.1 20.1 20.1 20.1 20.1 20.2 20.2 20.2 20.1 20.0 20.2 20.2 20.2 20.2 20.2 20.2 20.2 20.2 20.3 20.3 20.2 20.2 20.2 20.2 20.2 20.2 20.2 20.2 20.2 20.2 20.2 20.3 20.3 20.2 20.1 20.0 20.3 20.3 20.3 20.3 20.3 20.3 20.3 20.4 20.4 20.4 20.3 20.3 20.3 20.3 20.3 20.3 20.3 20.3 20.3 20.3 20.4 20.4 20.3 20.2 20.1 20.0 20.3 20.4 20.4 20.4 20.5 20.4 20.4 20.5 20.5 20.5 20.4 20.4 20.4 20.4 20.4 20.4 20.4 20.4 20.5 20.5 20.5 20.4 20.3 20.1 20.1 20.0 20.4 20.5 20.5 20.6 20.6 20.6 20.6 20.6 20.6 20.6 20.6 20.5 20.5 20.5 20.5 20.5 20.6 20.6 20.6 20.6 20.5 20.4 20.2 20.1 20.1 20.0 20.5 20.6 20.6 20.7 20.7 20.7 20.7 20.8 20.8 20.8 20.7 20.6 20.6 20.6 20.7 20.7 20.7 20.7 20.7 20.6 20.5 20.3 20.2 20.1 20.1 20.0 20.6 20.7 20.7 20.8 20.9 20.9 20.9 20.9 20.9 20.9 20.8 20.8 20.8 20.8 20.9 20.9 20.9 20.8 20.8 20.6 20.5 20.3 20.2 20.1 20.1 20.0 20.8 20.8 20.9 21.0 21.0 21.1 21.1 21.1 21.1 21.1 21.0 21.0 21.0 21.1 21.1 21.1 21.0 20.9 20.8 20.6 20.4 20.3 20.2 20.1 20.1 20.0 21.0 21.0 21.1 21.2 21.2 21.3 21.3 21.4 21.4 21.3 21.3 21.3 21.3 21.3 21.3 21.2 21.1 20.9 20.8 20.6 20.4 20.3 20.2 20.2 20.1 20.0 21.2 21.3 21.3 21.4 21.5 21.6 21.6 21.6 21.7 21.6 21.6 21.6 21.5 21.5 21.4 21.3 21.1 21.0 20.8 20.6 20.4 20.3 20.2 20.2 20.1 20.0 21.5 21.5 21.6 21.7 21.9 21.9 22.0 22.1 22.1 22.0 21.9 21.8 21.8 21.7 21.6 21.4 21.2 21.0 20.8 20.6 20.4 20.4 20.3 20.2 20.1 20.0 21.7 21.8 22.0 22.1 22.3 22.4 22.5 22.6 22.5 22.4 22.3 22.2 22.0 21.9 21.7 21.4 21.2 21.0 20.8 20.6 20.5 20.4 20.3 20.2 20.1 20.0 22.0 22.2 22.3 22.6 22.8 23.0 23.1 23.1 23.0 22.8 22.6 22.5 22.3 22.0 21.8 21.5 21.2 21.0 20.8 20.6 20.5 20.4 20.3 20.2 20.1 20.0 22.3 22.5 22.8 23.1 23.4 23.7 23.9 23.9 23.7 23.3 23.1 22.8 22.5 22.2 21.8 21.5 21.2 21.0 20.8 20.7 20.5 20.4 20.3 20.2 20.1 20.0 22.6 23.0 23.3 23.7 24.2 24.7 25.0 24.8 24.4 23.9 23.5 23.1 22.7 22.3 21.9 21.5 21.2 21.0 20.8 20.7 20.6 20.4 20.3 20.2 20.1 20.0 23.0 23.4 23.9 24.5 25.2 25.9 26.5 26.2 25.2 24.5 24.0 23.4 22.9 22.4 21.9 21.6 21.3 21.1 20.9 20.8 20.6 20.5 20.3 20.2 20.1 20.1 23.5 24.0 24.8 26.3 27.8 28.9 31.1 29.8 26.3 25.2 24.4 23.7 23.1 22.5 22.1 21.8 21.5 21.3 21.1 20.9 20.7 20.5 20.4 20.3 20.1 20.1 24.1 25.4 29.1 39.5 52.5 51.1 61.5 55.1 29.0 26.1 25.1 24.1 23.3 22.8 22.3 22.0 21.7 21.4 21.2 21.0 20.8 20.6 20.4 20.3 20.1 20.1 25.0 26.6 32.2 51.4 121.7 178.6 186.3 111.6 32.6 27.2 25.8 24.7 23.8 23.1 22.6 22.2 21.8 21.5 21.2 21.0 20.8 20.6 20.4 20.3 20.1 20.1 26.5 27.7 30.7 44.9 149.7 383.1 370.5 131.5 36.9 29.6 26.5 25.2 24.2 23.3 22.7 22.3 21.8 21.5 21.2 21.0 20.8 20.6 20.4 20.3 20.1 20.1 26.6 27.9 31.5 43.5 134.7 358.1 360.9 153.6 57.3 31.8 26.5 25.1 24.2 23.3 22.7 22.2 21.8 21.5 21.2 21.0 20.7 20.6 20.4 20.3 20.1 20.1 25.2 26.5 29.9 42.6 95.7 152.8 157.4 115.6 56.9 29.9 25.7 24.5 23.7 23.1 22.6 22.1 21.7 21.5 21.2 20.9 20.7 20.6 20.4 20.3 20.1 20.1 24.2 24.9 26.2 32.1 42.2 47.9 47.0 42.4 33.4 26.4 24.9 23.9 23.2 22.7 22.3 21.9 21.6 21.4 21.2 20.9 20.7 20.6 20.4 20.3 20.1 20.1 22.8 24.1 24.9 26.5 29.4 33.0 33.6 30.1 26.6 25.1 24.2 23.5 22.8 22.4 22.0 21.7 21.4 21.2 21.0 20.8 20.7 20.5 20.4 20.3 20.1 20.1 20.0 20.0 20.0 20.0 20.0 20.0 20.0 20.0 20.0 20.0 20.0 20.0 20.0 20.0 20.0 20.0 20.0 20.0 20.0 20.0 20.0 20.0 20.0 20.0 20.1 20.1 20.0 20.1 20.1 20.1 20.1 20.1 20.1 20.1 20.1 20.1 20.1 20.1 20.1 20.1 20.0 20.0 20.0 20.0 20.0 20.0 20.0 20.1 20.1 20.1 20.1 20.1 20.1 20.1 20.1 20.1 20.1 20.1 20.1 20.1 20.1 20.2 20.1 20.1 20.1 20.1 20.1 20.1 20.1 20.1 20.1 20.1 20.1 20.1 20.2 20.2 20.1 20.0 20.2 20.2 20.2 20.2 20.2 20.2 20.2 20.2 20.2 20.2 20.2 20.2 20.2 20.2 20.2 20.2 20.2 20.2 20.2 20.2 20.2 20.3 20.3 20.2 20.1 20.0 20.2 20.3 20.3 20.3 20.3 20.3 20.3 20.3 20.4 20.3 20.3 20.3 20.2 20.2 20.2 20.2 20.3 20.3 20.3 20.3 20.3 20.3 20.3 20.1 20.1 20.0 20.3 20.3 20.4 20.4 20.4 20.4 20.4 20.4 20.5 20.4 20.4 20.4 20.3 20.3 20.3 20.4 20.4 20.4 20.4 20.4 20.4 20.3 20.2 20.1 20.0 20.0 20.4 20.4 20.5 20.5 20.5 20.5 20.6 20.6 20.6 20.6 20.5 20.5 20.4 20.5 20.5 20.5 20.5 20.5 20.5 20.5 20.4 20.3 20.2 20.1 20.0 20.0 20.5 20.5 20.6 20.6 20.7 20.7 20.7 20.7 20.7 20.7 20.6 20.6 20.6 20.6 20.7 20.7 20.7 20.7 20.6 20.5 20.4 20.3 20.2 20.1 20.0 20.0 20.6 20.7 20.7 20.8 20.9 20.9 20.9 20.9 20.9 20.9 20.8 20.8 20.8 20.8 20.8 20.8 20.8 20.8 20.7 20.6 20.4 20.3 20.2 20.1 20.1 20.0 20.8 20.8 20.9 21.0 21.1 21.1 21.1 21.2 21.2 21.1 21.1 21.0 21.0 21.0 21.0 21.0 20.9 20.8 20.7 20.6 20.4 20.3 20.2 20.1 20.1 20.0 21.0 21.0 21.1 21.2 21.3 21.4 21.4 21.4 21.4 21.4 21.3 21.3 21.3 21.2 21.2 21.1 21.0 20.9 20.7 20.6 20.4 20.3 20.2 20.1 20.1 20.0 21.2 21.3 21.4 21.5 21.6 21.7 21.8 21.8 21.8 21.7 21.6 21.6 21.5 21.4 21.3 21.2 21.1 20.9 20.7 20.6 20.4 20.3 20.2 20.1 20.1 20.0 21.5 21.6 21.7 21.9 22.0 22.1 22.2 22.3 22.2 22.1 21.9 21.9 21.8 21.6 21.5 21.3 21.1 20.9 20.7 20.6 20.4 20.3 20.2 20.1 20.1 20.0 21.7 21.9 22.1 22.3 22.5 22.7 22.8 22.9 22.7 22.5 22.3 22.2 22.0 21.9 21.7 21.4 21.2 21.0 20.7 20.6 20.4 20.3 20.2 20.2 20.1 20.0 22.0 22.2 22.5 22.7 23.1 23.4 23.5 23.4 23.2 23.0 22.7 22.5 22.3 22.1 21.8 21.5 21.2 21.0 20.8 20.6 20.5 20.3 20.3 20.2 20.1 20.0 22.4 22.7 23.0 23.3 23.8 24.2 24.4 24.3 23.9 23.5 23.2 22.9 22.6 22.3 21.9 21.6 21.3 21.0 20.8 20.6 20.5 20.4 20.3 20.2 20.1 20.0 22.8 23.1 23.6 24.3 25.1 25.7 26.1 25.5 24.7 24.2 23.7 23.3 22.9 22.4 22.0 21.6 21.3 21.0 20.8 20.7 20.5 20.4 20.3 20.2 20.1 20.0 23.2 23.8 24.4 25.9 26.9 27.6 29.4 28.7 26.1 24.9 24.3 23.7 23.1 22.6 22.1 21.7 21.4 21.1 20.9 20.7 20.6 20.4 20.3 20.2 20.1 20.0 23.9 24.6 25.6 28.7 30.8 32.6 41.7 40.2 29.1 25.7 24.9 24.1 23.4 22.8 22.2 21.8 21.5 21.2 21.0 20.8 20.7 20.5 20.4 20.2 20.1 20.1 24.7 26.5 31.7 45.9 63.8 64.3 88.8 80.3 34.1 27.0 25.6 24.6 23.7 23.0 22.5 22.1 21.7 21.4 21.2 20.9 20.7 20.6 20.4 20.3 20.1 20.1 26.0 28.6 37.2 76.7 176.5 215.3 204.2 133.6 37.7 28.4 26.5 25.3 24.3 23.4 22.8 22.3 21.9 21.5 21.2 21.0 20.8 20.6 20.4 20.3 20.1 20.1 27.9 30.4 37.0 75.3 225.0 368.8 337.3 171.4 50.7 32.7 27.5 25.9 24.8 23.7 23.0 22.4 21.9 21.5 21.2 21.0 20.7 20.5 20.4 20.2 20.1 20.1 27.8 30.2 37.2 75.2 218.2 381.1 392.9 265.0 122.3 48.2 28.0 25.9 24.7 23.7 23.0 22.4 21.9 21.6 21.2 21.0 20.7 20.5 20.4 20.2 20.1 20.1 25.9 27.4 34.3 74.6 164.6 228.6 258.4 235.4 126.4 45.1 26.9 25.1 24.1 23.3 22.7 22.2 21.8 21.5 21.2 21.0 20.7 20.6 20.4 20.2 20.1 20.1 24.6 25.4 28.3 42.7 58.2 73.4 91.3 84.5 50.5 28.1 25.5 24.4 23.5 22.9 22.4 22.0 21.6 21.4 21.1 20.9 20.7 20.5 20.4 20.2 20.1 20.1 23.0 24.5 25.4 26.9 30.2 41.0 44.8 34.6 27.9 25.8 24.7 23.9 23.2 22.6 22.1 21.7 21.4 21.2 21.0 20.8 20.6 20.5 20.3 20.2 20.1 20.1 20.0 20.0 20.0 20.0 20.0 20.0 20.0 20.0 20.0 20.0 20.0 20.0 20.0 20.0 20.0 20.0 20.0 20.0 20.0 20.0 20.0 20.0 20.0 20.0 20.1 20.1 20.0 20.1 20.1 20.1 20.1 20.1 20.1 20.1 20.1 20.1 20.1 20.1 20.1 20.0 20.0 20.0 20.0 20.0 20.0 20.0 20.0 20.1 20.1 20.1 20.1 20.1 20.1 20.1 20.1 20.1 20.1 20.1 20.1 20.1 20.2 20.2 20.1 20.1 20.1 20.1 20.1 20.1 20.1 20.1 20.1 20.1 20.1 20.1 20.2 20.1 20.1 20.0 20.2 20.2 20.2 20.2 20.2 20.2 20.2 20.2 20.2 20.2 20.2 20.2 20.2 20.2 20.2 20.2 20.2 20.2 20.2 20.2 20.2 20.2 20.2 20.2 20.1 20.0 20.2 20.3 20.3 20.3 20.3 20.3 20.3 20.3 20.4 20.3 20.3 20.3 20.3 20.2 20.2 20.3 20.3 20.3 20.3 20.3 20.3 20.3 20.2 20.1 20.1 20.0 20.3 20.3 20.4 20.4 20.4 20.4 20.4 20.5 20.5 20.5 20.4 20.4 20.4 20.4 20.4 20.4 20.4 20.4 20.4 20.4 20.4 20.3 20.2 20.1 20.0 20.0 20.4 20.4 20.5 20.5 20.6 20.6 20.6 20.6 20.6 20.6 20.5 20.5 20.5 20.5 20.5 20.5 20.5 20.5 20.5 20.5 20.4 20.3 20.2 20.1 20.0 20.0 20.5 20.6 20.6 20.7 20.7 20.7 20.7 20.8 20.8 20.7 20.7 20.6 20.6 20.6 20.7 20.6 20.6 20.6 20.6 20.5 20.4 20.3 20.2 20.1 20.0 20.0 20.7 20.7 20.8 20.9 20.9 20.9 20.9 21.0 21.0 20.9 20.9 20.8 20.8 20.8 20.8 20.8 20.7 20.7 20.6 20.5 20.4 20.3 20.2 20.1 20.0 20.0 20.8 20.9 20.9 21.0 21.1 21.2 21.2 21.2 21.2 21.2 21.1 21.1 21.0 21.0 21.0 20.9 20.9 20.8 20.7 20.5 20.4 20.3 20.2 20.1 20.1 20.0 21.0 21.1 21.2 21.3 21.4 21.5 21.5 21.6 21.5 21.5 21.4 21.3 21.3 21.2 21.1 21.1 21.0 20.8 20.7 20.6 20.4 20.3 20.2 20.1 20.1 20.0 21.2 21.3 21.4 21.6 21.8 21.8 21.9 22.0 21.9 21.8 21.7 21.6 21.5 21.4 21.3 21.2 21.0 20.9 20.7 20.6 20.4 20.3 20.2 20.1 20.1 20.0 21.5 21.6 21.8 22.0 22.1 22.3 22.4 22.5 22.3 22.2 22.0 21.9 21.7 21.6 21.5 21.3 21.1 21.0 20.8 20.6 20.4 20.3 20.2 20.1 20.1 20.0 21.7 21.9 22.1 22.4 22.7 22.8 23.0 23.0 22.8 22.6 22.4 22.2 22.0 21.8 21.6 21.4 21.2 21.0 20.8 20.6 20.5 20.3 20.2 20.2 20.1 20.0 22.1 22.3 22.5 22.9 23.3 23.6 23.8 23.7 23.4 23.1 22.8 22.6 22.3 22.1 21.8 21.6 21.3 21.0 20.8 20.6 20.5 20.4 20.3 20.2 20.1 20.0 22.4 22.8 23.1 23.5 24.0 24.4 24.7 24.6 24.1 23.7 23.3 23.0 22.7 22.3 22.0 21.7 21.3 21.1 20.8 20.7 20.5 20.4 20.3 20.2 20.1 20.0 22.9 23.4 24.2 25.0 25.5 26.2 26.6 25.9 25.0 24.4 23.9 23.4 23.0 22.5 22.1 21.7 21.4 21.1 20.9 20.7 20.5 20.4 20.3 20.2 20.1 20.0 23.5 24.2 25.8 27.6 27.9 29.1 31.3 29.8 26.6 25.2 24.5 23.9 23.3 22.8 22.3 21.8 21.5 21.2 21.0 20.8 20.6 20.5 20.3 20.2 20.1 20.0 25.3 26.2 27.8 30.6 31.6 35.5 45.3 42.4 30.4 26.2 25.2 24.4 23.7 23.0 22.4 22.0 21.6 21.3 21.1 20.9 20.7 20.5 20.4 20.2 20.1 20.1 27.2 29.9 33.4 41.4 52.6 60.9 78.6 70.5 38.3 27.7 26.2 25.0 24.1 23.3 22.7 22.2 21.8 21.5 21.2 21.0 20.8 20.6 20.4 20.3 20.1 20.1 34.0 42.5 55.7 104.3 177.5 178.5 144.8 98.4 41.8 29.6 27.3 25.8 24.8 23.8 23.0 22.4 22.0 21.6 21.3 21.0 20.8 20.6 20.4 20.3 20.1 20.1 38.9 49.7 72.2 147.1 275.5 337.4 298.8 176.6 63.0 36.4 28.8 26.6 25.3 24.2 23.3 22.6 22.1 21.6 21.3 21.0 20.8 20.6 20.4 20.2 20.1 20.1 35.5 42.7 66.8 145.3 280.7 395.6 420.5 324.7 167.3 62.4 29.5 26.7 25.3 24.1 23.3 22.6 22.1 21.6 21.3 21.0 20.8 20.6 20.4 20.2 20.1 20.1 31.0 34.7 48.2 106.2 191.0 268.9 327.9 308.1 176.1 57.2 28.0 25.8 24.6 23.7 23.0 22.4 21.9 21.6 21.3 21.0 20.8 20.6 20.4 20.2 20.1 20.1 26.7 28.1 30.2 43.8 61.4 105.5 148.2 128.3 67.5 29.4 26.1 24.9 23.9 23.2 22.6 22.1 21.7 21.4 21.2 20.9 20.7 20.6 20.4 20.2 20.1 20.1 23.5 25.3 26.0 28.0 31.8 48.5 52.2 36.4 29.1 26.3 25.2 24.3 23.5 22.9 22.3 21.9 21.6 21.3 21.0 20.8 20.7 20.5 20.4 20.2 20.1 20.1 20.0 20.0 20.0 20.0 20.0 20.0 20.0 20.0 20.0 20.0 20.0 20.0 20.0 20.0 20.0 20.0 20.0 20.0 20.0 20.0 20.0 20.0 20.0 20.0 20.1 20.1 20.1 20.1 20.1 20.1 20.1 20.1 20.1 20.1 20.1 20.1 20.1 20.1 20.1 20.1 20.1 20.1 20.1 20.1 20.1 20.1 20.1 20.1 20.1 20.1 20.1 20.1 20.1 20.1 20.1 20.1 20.1 20.1 20.1 20.2 20.2 20.2 20.2 20.1 20.1 20.1 20.1 20.1 20.1 20.1 20.1 20.1 20.1 20.1 20.2 20.2 20.1 20.0 20.2 20.2 20.2 20.2 20.2 20.2 20.2 20.3 20.3 20.3 20.2 20.2 20.2 20.2 20.2 20.2 20.2 20.2 20.2 20.2 20.2 20.2 20.2 20.2 20.1 20.0 20.3 20.3 20.3 20.4 20.4 20.3 20.4 20.4 20.4 20.4 20.3 20.3 20.3 20.3 20.3 20.3 20.3 20.3 20.3 20.3 20.3 20.3 20.2 20.1 20.1 20.0 20.3 20.4 20.4 20.5 20.5 20.5 20.5 20.5 20.5 20.5 20.5 20.4 20.4 20.4 20.4 20.4 20.4 20.4 20.4 20.4 20.4 20.3 20.2 20.1 20.1 20.0 20.5 20.5 20.6 20.6 20.6 20.6 20.6 20.7 20.7 20.7 20.6 20.6 20.6 20.6 20.6 20.6 20.6 20.5 20.5 20.5 20.4 20.3 20.2 20.1 20.1 20.0 20.6 20.6 20.7 20.8 20.8 20.8 20.8 20.9 20.9 20.9 20.8 20.8 20.7 20.7 20.7 20.7 20.7 20.6 20.6 20.5 20.4 20.3 20.2 20.1 20.1 20.0 20.7 20.8 20.9 20.9 21.0 21.0 21.0 21.1 21.1 21.1 21.0 21.0 20.9 20.9 20.9 20.8 20.8 20.7 20.6 20.6 20.4 20.3 20.2 20.1 20.1 20.0 20.9 21.0 21.1 21.2 21.2 21.3 21.3 21.4 21.4 21.3 21.2 21.2 21.2 21.1 21.0 21.0 20.9 20.8 20.7 20.6 20.5 20.3 20.2 20.1 20.1 20.0 21.1 21.2 21.3 21.4 21.5 21.6 21.7 21.7 21.7 21.6 21.5 21.4 21.4 21.3 21.2 21.1 21.0 20.9 20.8 20.6 20.5 20.4 20.2 20.1 20.1 20.0 21.3 21.4 21.6 21.7 21.8 22.0 22.1 22.1 22.1 21.9 21.8 21.7 21.6 21.5 21.4 21.2 21.1 21.0 20.8 20.7 20.5 20.4 20.2 20.2 20.1 20.0 21.6 21.7 21.9 22.0 22.2 22.4 22.5 22.6 22.5 22.3 22.1 22.0 21.8 21.7 21.5 21.4 21.2 21.0 20.9 20.7 20.5 20.4 20.3 20.2 20.1 20.0 21.8 22.0 22.2 22.4 22.7 22.9 23.1 23.1 22.9 22.7 22.5 22.3 22.1 21.9 21.7 21.5 21.3 21.1 20.9 20.7 20.6 20.4 20.3 20.2 20.1 20.0 22.2 22.4 22.7 22.9 23.3 23.6 23.8 23.8 23.5 23.2 22.9 22.6 22.4 22.2 21.9 21.7 21.4 21.2 21.0 20.7 20.6 20.4 20.3 20.2 20.1 20.0 22.6 23.5 24.0 23.7 23.9 24.3 24.7 24.6 24.2 23.7 23.4 23.1 22.7 22.4 22.1 21.8 21.5 21.2 21.0 20.8 20.6 20.4 20.3 20.2 20.1 20.0 23.3 25.0 26.1 25.6 25.4 25.9 26.3 25.9 25.1 24.5 24.0 23.5 23.1 22.7 22.3 21.9 21.6 21.3 21.0 20.8 20.6 20.5 20.3 20.2 20.1 20.0 24.4 26.6 29.2 28.9 26.6 27.7 29.7 28.3 26.3 25.4 24.7 24.0 23.5 23.0 22.5 22.0 21.7 21.4 21.1 20.9 20.7 20.5 20.4 20.2 20.1 20.1 28.2 30.6 33.2 32.5 28.3 31.8 38.1 34.3 28.9 26.6 25.5 24.6 23.9 23.2 22.7 22.2 21.8 21.5 21.2 21.0 20.8 20.6 20.4 20.3 20.1 20.1 32.9 39.4 41.9 41.5 40.4 48.0 57.3 49.7 35.9 28.6 26.7 25.4 24.4 23.6 23.0 22.4 22.0 21.7 21.4 21.1 20.9 20.7 20.5 20.3 20.1 20.1 45.1 70.8 95.3 132.2 137.0 109.2 102.6 76.8 41.8 31.3 28.5 26.3 25.1 24.1 23.3 22.7 22.2 21.8 21.4 21.1 20.9 20.7 20.5 20.3 20.1 20.1 51.2 88.0 143.2 220.1 224.0 204.8 226.1 159.2 68.7 39.0 30.6 27.3 25.7 24.5 23.6 22.9 22.3 21.8 21.4 21.1 20.9 20.6 20.4 20.3 20.1 20.1 46.9 73.6 126.3 210.6 224.2 276.7 364.2 301.6 159.9 56.9 30.6 27.3 25.7 24.5 23.5 22.9 22.3 21.8 21.4 21.1 20.9 20.6 20.4 20.3 20.1 20.1 39.0 53.6 75.7 123.0 150.4 235.2 323.3 290.2 165.1 50.6 28.3 26.2 24.9 24.0 23.2 22.6 22.1 21.7 21.4 21.1 20.9 20.7 20.5 20.3 20.1 20.1 28.0 34.9 37.9 41.4 57.3 114.5 149.1 121.7 68.9 29.9 26.5 25.2 24.2 23.5 22.8 22.3 21.9 21.6 21.3 21.1 20.8 20.6 20.5 20.3 20.1 20.1 23.8 28.3 30.4 30.9 33.5 46.0 47.3 34.8 29.8 26.6 25.5 24.6 23.8 23.2 22.6 22.1 21.8 21.4 21.2 20.9 20.8 20.6 20.4 20.3 20.1 20.1 20.0 20.0 20.0 20.0 20.0 20.0 20.0 20.0 20.0 20.0 20.0 20.0 20.0 20.0 20.0 20.0 20.0 20.0 20.0 20.0 20.0 20.0 20.0 20.1 20.1 20.1 20.1 20.1 20.1 20.1 20.1 20.1 20.1 20.1 20.1 20.1 20.1 20.1 20.1 20.1 20.1 20.1 20.1 20.1 20.1 20.1 20.1 20.1 20.1 20.1 20.1 20.1 20.1 20.1 20.2 20.2 20.2 20.1 20.1 20.2 20.2 20.2 20.2 20.2 20.1 20.1 20.1 20.1 20.1 20.1 20.1 20.1 20.2 20.2 20.2 20.2 20.1 20.1 20.2 20.2 20.3 20.3 20.3 20.2 20.3 20.3 20.3 20.3 20.3 20.2 20.2 20.2 20.2 20.2 20.3 20.3 20.3 20.3 20.3 20.3 20.3 20.2 20.1 20.0 20.3 20.3 20.4 20.4 20.4 20.4 20.4 20.4 20.4 20.4 20.4 20.4 20.4 20.4 20.4 20.4 20.4 20.4 20.4 20.4 20.4 20.3 20.3 20.2 20.1 20.0 20.4 20.4 20.5 20.5 20.5 20.5 20.5 20.6 20.6 20.6 20.5 20.5 20.5 20.5 20.5 20.5 20.5 20.5 20.5 20.5 20.4 20.4 20.3 20.2 20.1 20.0 20.5 20.5 20.6 20.7 20.6 20.6 20.7 20.7 20.8 20.8 20.7 20.7 20.7 20.7 20.7 20.7 20.6 20.6 20.6 20.5 20.5 20.4 20.3 20.2 20.1 20.0 20.7 20.7 20.8 20.8 20.8 20.8 20.9 21.0 21.0 21.0 20.9 20.9 20.9 20.9 20.8 20.8 20.8 20.7 20.7 20.6 20.5 20.4 20.3 20.2 20.1 20.0 20.8 20.9 21.0 21.0 21.1 21.1 21.1 21.2 21.3 21.2 21.2 21.1 21.1 21.1 21.0 21.0 20.9 20.8 20.7 20.6 20.5 20.4 20.3 20.2 20.1 20.0 21.0 21.1 21.2 21.3 21.3 21.4 21.4 21.5 21.5 21.5 21.4 21.4 21.3 21.2 21.2 21.1 21.0 20.9 20.8 20.7 20.6 20.4 20.3 20.2 20.1 20.0 21.2 21.3 21.4 21.5 21.6 21.7 21.8 21.9 21.9 21.8 21.7 21.6 21.5 21.4 21.3 21.2 21.1 21.0 20.9 20.7 20.6 20.4 20.3 20.2 20.1 20.0 21.4 21.5 21.7 21.8 21.9 22.0 22.2 22.3 22.2 22.1 22.0 21.8 21.7 21.6 21.5 21.4 21.2 21.1 20.9 20.8 20.6 20.5 20.3 20.2 20.1 20.0 21.7 21.8 22.0 22.1 22.3 22.4 22.7 22.7 22.6 22.4 22.3 22.1 22.0 21.8 21.7 21.5 21.4 21.2 21.0 20.8 20.7 20.5 20.3 20.2 20.1 20.0 21.9 22.1 22.3 22.5 22.7 22.9 23.2 23.3 23.1 22.8 22.6 22.4 22.3 22.1 21.9 21.7 21.5 21.3 21.1 20.9 20.7 20.5 20.3 20.2 20.1 20.0 22.2 22.5 22.8 22.9 23.2 23.5 23.8 23.9 23.6 23.3 23.0 22.8 22.6 22.3 22.1 21.8 21.6 21.3 21.1 20.9 20.7 20.5 20.3 20.2 20.1 20.0 22.8 24.0 24.5 23.8 23.8 24.2 24.6 24.6 24.3 23.9 23.5 23.2 22.9 22.6 22.3 22.0 21.7 21.4 21.2 20.9 20.7 20.5 20.4 20.2 20.1 20.1 27.8 29.8 28.5 26.1 25.1 25.5 26.0 25.9 25.2 24.6 24.1 23.6 23.2 22.8 22.5 22.1 21.8 21.5 21.2 20.9 20.7 20.5 20.4 20.2 20.1 20.1 36.2 37.9 34.9 28.7 25.2 26.5 27.9 27.3 26.2 25.4 24.8 24.2 23.6 23.1 22.7 22.3 21.9 21.6 21.3 21.0 20.8 20.6 20.4 20.3 20.1 20.1 42.9 44.7 41.6 31.1 25.5 29.0 32.6 31.1 30.4 28.6 25.7 24.8 24.1 23.5 22.9 22.4 22.1 21.7 21.4 21.1 20.9 20.7 20.5 20.3 20.2 20.1 50.1 57.9 53.4 37.7 29.4 34.0 40.4 39.5 38.6 35.0 28.8 25.9 24.6 23.9 23.2 22.7 22.3 21.9 21.5 21.2 21.0 20.7 20.5 20.3 20.2 20.1 71.0 107.6 126.4 107.1 61.2 44.0 55.7 53.3 46.1 40.3 34.8 28.5 25.4 24.4 23.6 22.9 22.4 22.0 21.6 21.2 21.0 20.7 20.5 20.3 20.1 20.1 79.9 141.4 198.8 180.3 103.0 98.5 135.0 120.7 77.4 47.7 38.9 29.9 26.2 24.8 23.8 23.0 22.5 22.0 21.6 21.2 20.9 20.7 20.5 20.3 20.1 20.1 70.3 121.9 173.7 167.9 129.9 193.2 269.4 237.4 133.5 54.1 36.6 28.3 26.1 24.8 23.8 23.0 22.5 22.0 21.5 21.2 21.0 20.7 20.5 20.3 20.1 20.1 49.7 77.7 97.2 100.5 107.2 183.4 245.1 211.0 119.8 45.6 30.8 26.6 25.2 24.2 23.5 22.8 22.3 21.9 21.5 21.2 21.0 20.7 20.5 20.3 20.1 20.1 28.2 39.7 45.0 44.7 53.0 84.0 99.2 81.4 55.2 32.2 27.1 25.5 24.5 23.8 23.1 22.6 22.2 21.8 21.5 21.2 20.9 20.7 20.5 20.3 20.2 20.1 23.9 30.0 32.8 31.9 32.3 36.3 37.0 32.4 29.7 27.2 25.8 24.8 24.1 23.5 22.9 22.4 22.0 21.6 21.4 21.1 20.9 20.7 20.5 20.3 20.1 20.1 20.0 20.0 20.0 20.0 20.0 20.0 20.0 20.0 20.0 20.0 20.0 20.0 20.0 20.0 20.0 20.0 20.0 20.0 20.0 20.0 20.0 20.0 20.1 20.1 20.1 20.1 20.1 20.1 20.1 20.1 20.1 20.1 20.1 20.1 20.1 20.1 20.1 20.1 20.1 20.1 20.1 20.1 20.1 20.1 20.1 20.1 20.1 20.1 20.1 20.1 20.1 20.1 20.1 20.2 20.2 20.2 20.2 20.1 20.1 20.2 20.2 20.2 20.2 20.2 20.2 20.2 20.2 20.2 20.2 20.2 20.2 20.2 20.2 20.2 20.2 20.2 20.1 20.1 20.2 20.2 20.3 20.3 20.3 20.3 20.3 20.3 20.3 20.3 20.3 20.3 20.3 20.3 20.3 20.3 20.3 20.3 20.3 20.3 20.3 20.3 20.3 20.2 20.1 20.1 20.3 20.3 20.4 20.4 20.4 20.4 20.4 20.4 20.5 20.5 20.4 20.4 20.4 20.4 20.4 20.4 20.5 20.5 20.5 20.5 20.4 20.4 20.3 20.2 20.1 20.0 20.4 20.4 20.5 20.5 20.5 20.5 20.5 20.6 20.6 20.6 20.6 20.6 20.6 20.6 20.6 20.6 20.6 20.6 20.6 20.6 20.5 20.5 20.3 20.2 20.1 20.0 20.5 20.6 20.6 20.7 20.7 20.7 20.7 20.8 20.8 20.9 20.8 20.8 20.8 20.8 20.8 20.8 20.8 20.7 20.7 20.6 20.6 20.5 20.3 20.2 20.1 20.0 20.7 20.8 20.8 20.8 20.9 20.9 20.9 21.0 21.1 21.1 21.1 21.0 21.0 21.0 21.0 21.0 20.9 20.9 20.8 20.7 20.6 20.5 20.3 20.2 20.1 20.0 20.9 21.0 21.0 21.1 21.1 21.1 21.2 21.3 21.4 21.4 21.3 21.3 21.2 21.2 21.2 21.1 21.0 21.0 20.9 20.8 20.6 20.5 20.4 20.2 20.1 20.0 21.1 21.2 21.3 21.3 21.4 21.4 21.5 21.6 21.7 21.6 21.6 21.5 21.5 21.4 21.3 21.2 21.2 21.1 20.9 20.8 20.7 20.5 20.4 20.2 20.1 20.0 21.3 21.4 21.5 21.6 21.7 21.8 21.9 22.0 22.0 21.9 21.8 21.8 21.7 21.6 21.5 21.4 21.3 21.2 21.0 20.9 20.7 20.5 20.4 20.2 20.1 20.0 21.5 21.6 21.8 21.9 22.0 22.2 22.3 22.4 22.3 22.2 22.1 22.0 21.9 21.8 21.7 21.5 21.4 21.3 21.1 20.9 20.7 20.6 20.4 20.2 20.1 20.1 21.7 21.9 22.0 22.2 22.4 22.5 22.8 22.8 22.7 22.6 22.4 22.3 22.2 22.0 21.9 21.7 21.5 21.4 21.2 21.0 20.8 20.6 20.4 20.2 20.1 20.1 21.9 22.2 22.4 22.5 22.7 22.9 23.2 23.3 23.2 23.0 22.8 22.6 22.4 22.2 22.1 21.9 21.7 21.5 21.2 21.0 20.8 20.6 20.4 20.2 20.1 20.1 22.2 22.5 22.8 22.9 23.2 23.4 23.8 23.9 23.7 23.5 23.2 23.0 22.7 22.5 22.3 22.0 21.8 21.5 21.3 21.0 20.8 20.6 20.4 20.2 20.1 20.1 22.9 23.7 24.0 23.7 23.7 24.1 24.5 24.6 24.4 24.0 23.7 23.4 23.1 22.8 22.5 22.2 21.9 21.6 21.3 21.1 20.8 20.6 20.4 20.3 20.1 20.1 29.9 32.2 29.1 26.3 24.8 25.1 25.6 25.7 25.1 24.6 24.2 23.8 23.4 23.0 22.7 22.3 22.0 21.7 21.4 21.1 20.8 20.6 20.4 20.3 20.1 20.1 46.9 48.9 36.6 26.9 25.6 26.6 26.8 26.8 26.2 25.5 24.8 24.3 23.8 23.3 22.9 22.5 22.1 21.8 21.4 21.1 20.9 20.7 20.5 20.3 20.1 20.1 63.2 62.9 42.4 26.4 27.3 29.7 29.4 30.0 33.5 31.5 26.0 24.9 24.2 23.7 23.2 22.7 22.3 21.9 21.5 21.2 21.0 20.7 20.5 20.3 20.2 20.1 80.0 80.7 53.1 29.3 30.3 33.8 34.5 39.6 50.2 48.0 33.1 26.2 24.8 24.0 23.4 22.9 22.4 22.0 21.6 21.3 21.0 20.8 20.6 20.4 20.2 20.1 117.2 141.3 110.0 51.3 36.7 43.4 46.4 58.3 66.9 62.8 47.2 30.8 25.7 24.6 23.8 23.1 22.6 22.1 21.7 21.3 21.0 20.8 20.5 20.3 20.2 20.1 134.4 188.0 164.8 86.9 76.5 103.5 109.6 114.8 96.2 72.0 54.3 32.4 26.4 25.1 24.1 23.2 22.7 22.2 21.7 21.3 21.0 20.7 20.5 20.3 20.1 20.1 112.5 163.9 143.8 103.3 148.5 206.0 211.7 177.7 110.8 70.5 48.0 29.0 26.2 25.0 24.1 23.3 22.6 22.1 21.7 21.3 21.0 20.7 20.5 20.3 20.1 20.1 71.7 100.5 86.2 77.4 120.0 165.3 175.5 135.5 81.0 54.6 36.1 26.9 25.4 24.4 23.8 23.1 22.5 22.1 21.7 21.3 21.0 20.8 20.5 20.3 20.2 20.1 35.2 46.6 45.3 41.9 43.6 54.6 64.3 54.9 45.3 37.1 28.0 25.7 24.7 24.0 23.4 22.8 22.4 22.0 21.6 21.3 21.0 20.8 20.6 20.4 20.2 20.1 24.6 30.0 31.9 30.7 30.6 31.8 33.3 31.7 29.4 27.6 25.9 25.0 24.3 23.7 23.2 22.7 22.2 21.9 21.5 21.2 20.9 20.7 20.5 20.3 20.2 20.1 20.0 20.0 20.0 20.0 20.0 20.0 20.0 20.0 20.0 20.0 20.0 20.0 20.0 20.0 20.0 20.0 20.0 20.0 20.0 20.0 20.0 20.1 20.1 20.1 20.1 20.1 20.1 20.1 20.1 20.1 20.1 20.1 20.1 20.1 20.1 20.1 20.1 20.1 20.1 20.1 20.1 20.1 20.1 20.1 20.1 20.1 20.1 20.1 20.1 20.2 20.1 20.1 20.1 20.2 20.2 20.2 20.2 20.1 20.1 20.2 20.2 20.2 20.2 20.2 20.2 20.2 20.2 20.2 20.2 20.2 20.2 20.2 20.2 20.3 20.3 20.3 20.2 20.1 20.2 20.2 20.3 20.3 20.3 20.3 20.3 20.3 20.3 20.3 20.3 20.3 20.3 20.3 20.3 20.3 20.4 20.4 20.4 20.4 20.4 20.4 20.4 20.3 20.1 20.1 20.3 20.3 20.4 20.4 20.4 20.4 20.4 20.4 20.5 20.5 20.5 20.5 20.5 20.5 20.5 20.5 20.5 20.6 20.5 20.5 20.5 20.5 20.4 20.3 20.1 20.1 20.4 20.4 20.5 20.5 20.5 20.5 20.5 20.6 20.7 20.7 20.7 20.7 20.7 20.7 20.7 20.7 20.7 20.7 20.7 20.7 20.6 20.5 20.4 20.3 20.1 20.0 20.6 20.6 20.6 20.7 20.7 20.7 20.7 20.8 20.9 20.9 20.9 20.9 20.9 20.9 20.9 20.9 20.9 20.9 20.8 20.8 20.7 20.6 20.4 20.2 20.1 20.0 20.7 20.8 20.8 20.9 20.9 20.9 21.0 21.1 21.2 21.2 21.2 21.1 21.1 21.1 21.1 21.1 21.0 21.0 20.9 20.8 20.7 20.6 20.4 20.2 20.1 20.0 20.9 21.0 21.1 21.1 21.2 21.2 21.3 21.4 21.5 21.5 21.4 21.4 21.4 21.3 21.3 21.2 21.1 21.1 21.0 20.9 20.8 20.6 20.4 20.2 20.1 20.1 21.1 21.2 21.3 21.4 21.5 21.5 21.6 21.8 21.8 21.8 21.7 21.6 21.6 21.5 21.4 21.3 21.3 21.2 21.1 20.9 20.8 20.6 20.4 20.2 20.1 20.1 21.3 21.5 21.6 21.7 21.8 21.9 22.0 22.1 22.1 22.0 21.9 21.8 21.8 21.7 21.6 21.5 21.4 21.3 21.2 21.0 20.8 20.6 20.4 20.2 20.1 20.1 21.5 21.7 21.8 22.0 22.1 22.2 22.4 22.5 22.4 22.3 22.2 22.1 22.0 21.9 21.8 21.6 21.5 21.4 21.2 21.1 20.9 20.6 20.4 20.2 20.1 20.1 21.7 21.9 22.1 22.3 22.4 22.6 22.8 22.9 22.8 22.7 22.5 22.4 22.2 22.1 22.0 21.8 21.7 21.5 21.3 21.1 20.9 20.6 20.4 20.2 20.1 20.1 22.0 22.2 22.4 22.6 22.8 23.0 23.2 23.3 23.3 23.1 22.9 22.7 22.5 22.3 22.2 22.0 21.8 21.6 21.4 21.2 20.9 20.6 20.4 20.3 20.1 20.1 22.2 22.5 22.8 23.0 23.2 23.4 23.7 23.8 23.8 23.5 23.3 23.1 22.8 22.6 22.4 22.2 21.9 21.7 21.4 21.2 20.9 20.6 20.4 20.3 20.1 20.1 22.7 23.3 23.5 23.4 23.6 24.0 24.4 24.5 24.3 24.1 23.8 23.5 23.2 22.9 22.6 22.3 22.1 21.8 21.5 21.2 20.9 20.6 20.4 20.3 20.1 20.1 26.1 28.7 27.9 25.8 24.5 24.7 25.3 25.4 25.0 24.7 24.3 23.9 23.5 23.2 22.8 22.5 22.2 21.9 21.5 21.2 20.9 20.7 20.5 20.3 20.1 20.1 42.0 44.9 32.5 26.4 25.9 25.6 26.2 26.6 26.1 25.4 24.9 24.4 23.9 23.5 23.1 22.7 22.3 22.0 21.6 21.3 21.0 20.7 20.5 20.3 20.2 20.1 65.1 64.2 36.9 26.0 28.0 27.6 27.8 29.3 32.2 30.6 26.3 25.0 24.4 23.8 23.3 22.9 22.5 22.1 21.7 21.3 21.0 20.8 20.5 20.4 20.2 20.1 90.6 87.0 50.2 32.4 34.1 31.7 34.0 43.9 52.9 49.4 35.2 26.1 25.0 24.2 23.7 23.1 22.6 22.2 21.8 21.4 21.1 20.8 20.6 20.4 20.2 20.1 134.3 143.1 88.4 47.3 47.4 41.8 49.0 74.9 86.1 75.0 51.9 29.8 25.8 24.8 24.1 23.4 22.8 22.3 21.8 21.4 21.0 20.8 20.6 20.3 20.2 20.1 162.8 186.9 124.4 81.0 93.1 97.4 107.3 120.6 117.9 94.7 61.3 31.4 26.4 25.2 24.4 23.6 22.9 22.3 21.8 21.4 21.0 20.7 20.5 20.3 20.2 20.1 139.0 167.1 122.2 123.0 159.7 169.6 168.2 135.3 110.4 91.9 55.0 28.9 26.1 25.0 24.3 23.6 23.0 22.3 21.8 21.4 21.0 20.7 20.5 20.3 20.2 20.1 86.8 109.1 85.7 94.3 117.2 123.2 123.7 90.6 70.9 64.6 39.8 27.0 25.5 24.5 23.9 23.4 22.8 22.2 21.8 21.4 21.1 20.8 20.6 20.4 20.2 20.1 43.6 54.9 48.8 41.3 38.7 43.8 52.3 46.7 41.7 38.3 28.9 25.9 25.0 24.2 23.6 23.1 22.6 22.1 21.7 21.4 21.0 20.8 20.6 20.4 20.2 20.1 25.8 33.5 36.3 32.9 30.6 31.6 33.8 31.8 28.8 27.4 26.1 25.3 24.5 23.9 23.4 22.9 22.4 22.0 21.6 21.3 21.0 20.8 20.5 20.3 20.2 20.1 20.0 20.0 20.0 20.0 20.0 20.0 20.0 20.0 20.0 20.1 20.0 20.0 20.0 20.0 20.0 20.0 20.0 20.0 20.0 20.1 20.1 20.1 20.1 20.1 20.1 20.1 20.1 20.1 20.1 20.1 20.1 20.1 20.1 20.1 20.1 20.1 20.1 20.1 20.1 20.1 20.1 20.1 20.1 20.1 20.1 20.1 20.1 20.1 20.2 20.2 20.2 20.1 20.1 20.1 20.2 20.2 20.2 20.1 20.1 20.2 20.2 20.2 20.2 20.2 20.2 20.2 20.2 20.2 20.2 20.2 20.3 20.3 20.3 20.3 20.3 20.3 20.2 20.1 20.2 20.2 20.3 20.3 20.3 20.3 20.3 20.3 20.3 20.3 20.3 20.3 20.3 20.3 20.4 20.4 20.4 20.4 20.4 20.5 20.5 20.5 20.5 20.3 20.2 20.1 20.3 20.3 20.4 20.4 20.4 20.4 20.4 20.4 20.5 20.5 20.5 20.5 20.5 20.5 20.6 20.6 20.6 20.6 20.6 20.6 20.6 20.6 20.5 20.3 20.1 20.1 20.4 20.4 20.5 20.5 20.5 20.5 20.6 20.6 20.7 20.8 20.8 20.7 20.7 20.8 20.8 20.8 20.8 20.8 20.8 20.7 20.7 20.6 20.5 20.3 20.1 20.1 20.6 20.6 20.7 20.7 20.7 20.7 20.8 20.9 21.0 21.0 21.0 21.0 21.0 21.0 21.0 21.0 20.9 20.9 20.9 20.8 20.7 20.6 20.5 20.3 20.1 20.1 20.8 20.8 20.9 20.9 21.0 21.0 21.1 21.2 21.3 21.3 21.3 21.2 21.2 21.2 21.2 21.1 21.1 21.0 20.9 20.9 20.8 20.7 20.5 20.3 20.1 20.1 21.0 21.1 21.1 21.2 21.2 21.3 21.4 21.5 21.6 21.6 21.5 21.4 21.4 21.4 21.3 21.2 21.2 21.1 21.0 21.0 20.8 20.7 20.5 20.3 20.1 20.1 21.2 21.3 21.4 21.5 21.5 21.6 21.7 21.9 21.9 21.8 21.7 21.6 21.6 21.5 21.4 21.4 21.3 21.2 21.1 21.0 20.9 20.7 20.5 20.3 20.1 20.1 21.3 21.5 21.6 21.8 21.9 21.9 22.0 22.2 22.2 22.1 21.9 21.8 21.8 21.7 21.6 21.5 21.4 21.3 21.2 21.1 20.9 20.7 20.5 20.3 20.1 20.1 21.5 21.7 21.9 22.0 22.2 22.3 22.5 22.6 22.6 22.3 22.2 22.1 22.0 21.9 21.8 21.6 21.5 21.4 21.3 21.2 21.0 20.7 20.5 20.3 20.1 20.1 21.7 21.9 22.1 22.3 22.4 22.6 22.8 23.0 22.9 22.7 22.5 22.4 22.2 22.1 21.9 21.8 21.7 21.6 21.4 21.2 21.0 20.7 20.5 20.3 20.1 20.1 21.9 22.1 22.4 22.6 22.8 23.0 23.2 23.4 23.3 23.1 22.9 22.7 22.5 22.3 22.2 22.0 21.8 21.7 21.5 21.2 21.0 20.7 20.5 20.3 20.1 20.1 22.1 22.4 22.7 23.0 23.2 23.4 23.6 23.8 23.8 23.6 23.3 23.1 22.8 22.6 22.4 22.2 22.0 21.8 21.5 21.3 21.0 20.7 20.5 20.3 20.1 20.1 22.5 22.8 23.1 23.3 23.6 24.0 24.2 24.4 24.4 24.1 23.8 23.5 23.2 22.9 22.6 22.4 22.1 21.9 21.6 21.3 21.0 20.7 20.5 20.3 20.1 20.1 23.8 25.1 25.5 24.7 24.3 24.6 25.1 25.2 25.0 24.7 24.2 23.9 23.5 23.2 22.9 22.6 22.2 21.9 21.6 21.3 21.0 20.7 20.5 20.3 20.1 20.1 33.2 34.4 29.3 26.2 25.0 25.1 25.8 26.3 26.0 25.3 24.8 24.4 23.9 23.5 23.1 22.8 22.4 22.1 21.7 21.4 21.1 20.8 20.5 20.3 20.2 20.1 50.4 50.5 37.4 28.9 26.6 26.5 27.4 28.4 28.6 27.5 26.1 24.9 24.4 23.9 23.4 23.0 22.6 22.2 21.8 21.5 21.1 20.8 20.6 20.4