<?xml version="1.0"?>
<VTKFile type="RectilinearGrid" version="1.0" byte_order="LittleEndian" header_type="UInt64">
<RectilinearGrid WholeExtent="25 50 25 50 0 15">
<Piece Extent="25 50 25 50 0 15">
<Coordinates>
<DataArray type="Float64" Name="Array X-Axis" format="ascii" RangeMin="15.0" RangeMax="30.0">
15.0 15.6 16.2 16.8 17.4 18.0 18.6 19.2 19.8 20.4 21.0 21.6 22.2 22.8 23.4 24.0 24.6 25.2 25.8 26.4 27.0 27.6 28.2 28.8 29.4 30.0 
</DataArray>
<DataArray type="Float64" Name="Array Y-Axis" format="ascii" RangeMin="15.0" RangeMax="30.0">
15.0 15.6 16.2 16.8 17.4 18.0 18.6 19.2 19.8 20.4 21.0 21.6 22.2 22.8 23.4 24.0 24.6 25.2 25.8 26.4 27.0 27.6 28.2 28.8 29.4 30.0 
</DataArray>
<DataArray type="Float64" Name="Array Z-Axis" format="ascii" RangeMin="0.0" RangeMax="9.0">
0.0 0.6 1.2 1.8 2.4 3.0 3.6 4.2 4.8 5.4 6.0 6.6 7.2 7.8 8.4 9.0 
</DataArray>
</Coordinates>
<PointData>
<DataArray Name="SOOT DENSITY" NumberOfComponents="1" type="UInt8" format="ascii">
0 0 0 0 0 1 0 0 0 0 0 0 0 0 0 0 0 0 0 0 0 0 0 0 0 0 0 0 0 0 0 0 0 0 0 0 0 0 0 0 0 0 0 0 0 0 0 0 0 0 0 0 0 0 0 0 0 0 0 0 0 0 0 0 0 0 0 0 0 0 0 0 0 0 0 0 0 0 0 0 0 0 0 0 0 0 0 0 0 0 0 0 0 0 0 0 0 0 0 0 0 0 0 0 0 0 0 0 0 0 0 0 0 0 0 0 0 0 0 0 0 0 0 0 0 0 0 0 0 0 0 0 0 0 0 0 0 0 0 0 0 0 0 0 0 0 0 0 0 0 0 0 0 0 0 0 0 0 0 0 0 0 0 0 0 0 0 0 0 0 0 0 0 0 0 0 0 0 0 0 0 0 0 0 0 0 0 0 0 0 0 0 0 0 0 0 0 0 0 0 0 0 0 0 0 0 0 0 0 0 0 0 0 0 0 0 0 0 0 0 0 0 0 0 0 0 0 0 0 0 0 0 0 0 0 0 0 0 0 0 0 0 0 0 0 0 0 0 0 0 0 0 0 0 0 0 0 0 0 0 0 0 0 0 0 0 0 0 0 0 0 0 0 0 0 0 0 0 0 0 0 0 0 0 0 0 0 0 0 0 0 0 0 0 0 0 0 0 0 0 0 0 0 0 0 0 0 0 0 0 0 0 0 0 0 0 0 0 0 0 0 0 0 0 0 0 0 0 0 0 0 0 0 0 0 0 0 0 0 0 0 0 0 0 0 0 0 0 0 0 0 0 0 0 0 0 0 0 0 0 0 0 0 0 0 0 0 0 0 0 0 0 0 0 0 0 0 0 0 0 0 0 0 0 0 0 0 0 0 0 0 0 0 0 0 0 0 0 0 0 0 0 0 0 0 0 0 0 0 0 0 0 0 0 0 0 0 0 0 0 0 0 0 0 0 0 0 0 0 0 0 0 0 0 0 0 0 0 0 0 0 0 0 0 0 0 0 0 0 0 0 0 0 0 0 0 0 0 0 0 0 0 0 0 0 0 0 0 0 0 0 0 0 0 0 0 0 0 0 0 0 0 0 0 0 0 0 0 0 0 0 0 0 0 0 0 0 0 0 0 0 0 0 0 0 0 0 0 0 0 0 0 0 0 0 0 0 0 0 0 0 0 0 0 0 0 0 0 0 0 0 0 0 0 0 0 0 0 0 0 0 0 0 0 0 0 0 0 0 0 0 0 0 0 0 0 0 0 0 0 0 0 0 0 0 0 0 0 0 0 0 0 0 0 0 0 0 0 0 0 0 0 0 0 0 0 0 0 0 0 0 0 0 0 0 0 0 0 0 0 0 0 0 0 0 0 0 0 0 0 0 0 0 0 0 0 0 0 0 0 0 0 0 0 0 0 0 0 0 0 0 0 0 0 0 0 0 0 0 0 0 0 0 0 0 0 0 0 0 0 0 0 0 0 0 0 0 0 0 0 0 0 0 0 0 0 0 0 0 0 0 0 0 0 0 0 0 0 0 3 5 4 3 1 0 0 0 0 0 0 0 0 0 0 0 0 0 0 0 0 0 0 0 0 0 0 0 0 0 0 0 0 0 0 0 0 0 0 0 0 0 0 0 0 0 0 0 0 0 0 0 0 0 0 0 0 0 0 0 0 0 0 0 0 0 0 0 0 0 0 0 0 0 0 0 0 0 0 0 0 0 0 0 0 0 0 0 0 0 0 0 0 0 0 0 0 0 0 0 0 0 0 0 0 0 0 0 0 0 0 0 0 0 0 0 0 0 0 0 0 0 0 0 0 0 0 0 0 0 0 0 0 0 0 0 0 0 0 0 0 0 0 0 0 0 0 0 0 0 0 0 0 0 0 0 0 0 0 0 0 0 0 0 0 0 0 0 0 0 0 0 0 0 0 0 0 0 0 0 0 0 0 0 0 0 0 0 0 0 0 0 0 0 0 0 0 0 0 0 0 0 0 0 0 0 0 0 0 0 0 0 0 0 0 0 0 0 0 0 0 0 0 0 0 0 0 0 0 0 0 0 0 0 0 0 0 0 0 0 0 0 0 0 0 0 0 0 0 0 0 0 0 0 0 0 0 0 0 0 0 0 0 0 0 0 0 0 0 0 0 0 0 0 0 0 0 0 0 0 0 0 0 0 0 0 0 0 0 0 0 0 0 0 0 0 0 0 0 0 0 0 0 0 0 0 0 0 0 0 0 0 0 0 0 0 0 0 0 0 0 0 0 0 0 0 0 0 0 0 0 0 0 0 0 0 0 0 0 0 0 0 0 0 0 0 0 0 0 0 0 0 0 0 0 0 0 0 0 0 0 0 0 0 0 0 0 0 0 0 0 0 0 0 0 0 0 0 0 0 0 0 0 0 0 0 0 0 0 0 0 0 0 0 0 0 0 0 0 0 0 0 0 0 0 0 0 0 0 0 0 0 0 0 0 0 0 0 0 0 0 0 0 0 0 0 0 0 0 0 0 0 0 0 0 0 0 0 0 0 0 0 0 0 0 0 0 0 0 0 0 0 0 0 0 0 0 0 0 0 0 0 0 0 0 0 0 0 0 0 0 0 0 0 0 0 0 0 0 0 0 0 0 0 0 0 0 0 0 0 0 0 0 0 0 0 0 0 0 0 0 0 0 0 0 0 0 0 0 0 0 0 0 0 0 0 0 0 0 0 0 0 0 0 0 0 0 0 0 0 0 0 0 0 0 0 0 0 0 0 0 0 0 0 0 0 0 0 0 0 0 0 0 0 0 0 0 0 0 0 0 0 0 0 0 0 0 0 0 0 0 0 0 0 0 0 0 0 0 0 0 0 0 0 0 0 0 0 0 0 0 0 0 0 0 0 0 0 0 0 0 0 0 0 0 0 0 0 0 0 0 0 0 0 0 0 0 0 0 0 0 0 0 0 0 0 0 0 0 0 0 0 0 0 0 0 0 0 0 0 0 0 0 0 0 0 0 0 0 0 0 0 0 0 0 0 0 0 0 0 0 0 0 0 0 0 0 0 0 0 0 0 0 0 2 3 9 14 11 10 7 1 0 0 0 0 0 0 0 0 0 0 0 0 0 0 0 0 0 0 0 0 0 0 0 0 0 0 0 0 0 0 0 0 0 0 0 0 0 0 0 0 0 0 0 0 0 0 0 0 0 0 0 0 0 0 0 0 0 0 0 0 0 0 0 0 0 0 0 0 0 0 0 0 0 0 0 0 0 0 0 0 0 0 0 0 0 0 0 0 0 0 0 0 0 0 0 0 0 0 0 0 0 0 0 0 0 0 0 0 0 0 0 0 0 0 0 0 0 0 0 0 0 0 0 0 0 0 0 0 0 0 0 0 0 0 0 0 0 0 0 0 0 0 0 0 0 0 0 0 0 0 0 0 0 0 0 0 0 0 0 0 0 0 0 0 0 0 0 0 0 0 0 0 0 0 0 0 0 0 0 0 0 0 0 0 0 0 0 0 0 0 0 0 0 0 0 0 0 0 0 0 0 0 0 0 0 0 0 0 0 0 0 0 0 0 0 0 0 0 0 0 0 0 0 0 0 0 0 0 0 0 0 0 0 0 0 0 0 0 0 0 0 0 0 0 0 0 0 0 0 0 0 0 0 0 0 0 0 0 0 0 0 0 0 0 0 0 0 0 0 0 0 0 0 0 0 0 0 0 0 0 0 0 0 0 0 0 0 0 0 0 0 0 0 0 0 0 0 0 0 0 0 0 0 0 0 0 0 0 0 0 0 0 0 0 0 0 0 0 0 0 0 0 0 0 0 0 0 0 0 0 0 0 0 0 0 0 0 0 0 0 0 0 0 0 0 0 0 0 0 0 0 0 0 0 0 0 0 0 0 0 0 0 0 0 0 0 0 0 0 0 0 0 0 0 0 0 0 0 0 0 0 0 0 0 0 0 0 0 0 0 0 0 0 0 0 0 0 0 0 0 0 0 0 0 0 0 0 0 0 0 0 0 0 0 0 0 0 0 0 0 0 0 0 0 0 0 0 0 0 0 0 0 0 0 0 0 0 0 0 0 0 0 0 0 0 0 0 0 0 0 0 0 0 0 0 0 0 0 0 0 0 0 0 0 0 0 0 0 0 0 0 0 0 0 0 0 0 0 0 0 0 0 0 0 0 0 0 0 0 0 0 0 0 0 0 0 0 0 0 0 0 0 0 0 0 0 0 0 0 0 0 0 0 0 0 0 0 0 0 0 0 0 0 0 0 0 0 0 0 0 0 0 0 0 0 0 0 0 0 0 0 0 0 0 0 0 0 0 0 0 0 0 0 0 0 0 0 0 0 0 0 0 0 0 0 0 0 0 0 0 0 0 0 0 0 0 0 0 0 0 0 0 0 0 0 0 0 0 0 0 0 0 0 0 0 0 0 0 0 0 0 0 0 0 0 0 0 0 0 0 0 0 0 0 0 0 0 0 0 0 0 0 0 0 0 0 0 0 0 0 0 0 0 0 0 0 0 0 0 0 0 0 0 0 0 0 0 0 0 0 0 0 0 0 0 0 0 0 0 0 0 0 0 0 0 0 0 0 3 10 19 21 17 20 16 3 0 0 0 0 0 0 0 0 0 0 0 0 0 0 0 0 0 0 0 1 1 1 1 1 1 0 0 0 0 0 0 0 0 0 0 0 0 0 0 0 0 0 0 0 0 0 0 0 0 0 0 0 0 0 0 0 0 0 0 0 0 0 0 0 0 0 0 0 0 0 0 0 0 0 0 0 0 0 0 0 0 0 0 0 0 0 0 0 0 0 0 0 0 0 0 0 0 0 0 0 0 0 0 0 0 0 0 0 0 0 0 0 0 0 0 0 0 0 0 0 0 0 0 0 0 0 0 0 0 0 0 0 0 0 0 0 0 0 0 0 0 0 0 0 0 0 0 0 0 0 0 0 0 0 0 0 0 0 0 0 0 0 0 0 0 0 0 0 0 0 0 0 0 0 0 0 0 0 0 0 0 0 0 0 0 0 0 0 0 0 0 0 0 0 0 0 0 0 0 0 0 0 0 0 0 0 0 0 0 0 0 0 0 0 0 0 0 0 0 0 0 0 0 0 0 0 0 0 0 0 0 0 0 0 0 0 0 0 0 0 0 0 0 0 0 0 0 0 0 0 0 0 0 0 0 0 0 0 0 0 0 0 0 0 0 0 0 0 0 0 0 0 0 0 0 0 0 0 0 0 0 0 0 0 0 0 0 0 0 0 0 0 0 0 0 0 0 0 0 0 0 0 0 0 0 0 0 0 0 0 0 0 0 0 0 0 0 0 0 0 0 0 0 0 0 0 0 0 0 0 0 0 0 0 0 0 0 0 0 0 0 0 0 0 0 0 0 0 0 0 0 0 0 0 0 0 0 0 0 0 0 0 0 0 0 0 0 0 0 0 0 0 0 0 0 0 0 0 0 0 0 0 0 0 0 0 0 0 0 0 0 0 0 0 0 0 0 0 0 0 0 0 0 0 0 0 0 0 0 0 0 0 0 0 0 0 0 0 0 0 0 0 0 0 0 0 0 0 0 0 0 0 0 0 0 0 0 0 0 0 0 0 0 0 0 0 0 0 0 0 0 0 0 0 0 0 0 0 0 0 0 0 0 0 0 0 0 0 0 0 0 0 0 0 0 0 0 0 0 0 0 0 0 0 0 0 0 0 0 0 0 0 0 0 0 0 0 0 0 0 0 0 0 0 0 0 0 0 0 0 0 0 0 0 0 0 0 0 0 0 0 0 0 0 0 0 0 0 0 0 0 0 0 0 0 0 0 0 0 0 0 0 0 0 0 0 0 0 0 0 0 0 0 0 0 0 0 0 0 0 0 0 0 0 0 0 0 0 0 0 0 0 0 0 0 0 0 0 0 0 0 0 0 0 0 0 0 0 0 0 0 0 0 0 0 0 0 0 0 0 0 0 0 0 0 0 0 0 0 0 0 0 0 0 0 0 0 0 0 0 0 0 0 0 0 0 0 0 0 0 0 0 0 0 0 0 0 0 0 0 0 0 0 0 0 0 0 0 0 0 0 0 0 0 0 0 0 0 0 0 0 0 0 0 0 0 0 4 11 22 35 35 26 24 16 4 0 0 0 0 0 0 0 0 0 0 0 0 0 0 0 0 0 0 1 2 4 5 4 3 1 0 0 0 0 0 0 0 0 0 0 0 0 0 0 0 0 0 0 0 0 0 0 0 0 0 0 0 0 0 0 0 0 0 0 0 0 0 0 0 0 0 0 0 0 0 0 0 0 0 0 0 0 0 0 0 0 0 0 0 0 0 0 0 0 0 0 0 0 0 0 0 0 0 0 0 0 0 0 0 0 0 0 0 0 0 0 0 0 0 0 0 0 0 0 0 0 0 0 0 0 0 0 0 0 0 0 0 0 0 0 0 0 0 0 0 0 0 0 0 0 0 0 0 0 0 0 0 0 0 0 0 0 0 0 0 0 0 0 0 0 0 0 0 0 0 0 0 0 0 0 0 0 0 0 0 0 0 0 0 0 0 0 0 0 0 0 0 0 0 0 0 0 0 0 0 0 0 0 0 0 0 0 0 0 0 0 0 0 0 0 0 0 0 0 0 0 0 0 0 0 0 0 0 0 0 0 0 0 0 0 0 0 0 0 0 0 0 0 0 0 0 0 0 0 0 0 0 0 0 0 0 0 0 0 0 0 0 0 0 0 0 0 0 0 0 0 0 0 0 0 0 0 0 0 0 0 0 0 0 0 0 0 0 0 0 0 0 0 0 0 0 0 0 0 0 0 0 0 0 0 0 0 0 0 0 0 0 0 0 0 0 0 0 0 0 0 0 0 0 0 0 0 0 0 0 0 0 0 0 0 0 0 0 0 0 0 0 0 0 0 0 0 0 0 0 0 0 0 0 0 0 0 0 0 0 0 0 0 0 0 0 0 0 0 0 0 0 0 0 0 0 0 0 0 0 0 0 0 0 0 0 0 0 0 0 0 0 0 0 0 0 0 0 0 0 0 0 0 0 0 0 0 0 0 0 0 0 0 0 0 0 0 0 0 0 0 0 0 0 0 0 0 0 0 0 0 0 0 0 0 0 0 0 0 0 0 0 0 0 0 0 0 0 0 0 0 0 0 0 0 0 0 0 0 0 0 0 0 0 0 0 0 0 0 0 0 0 0 0 0 0 0 0 0 0 0 0 0 0 0 0 0 0 0 0 0 0 0 0 0 0 0 0 0 0 0 0 0 0 0 0 0 0 0 0 0 0 0 0 0 0 0 0 0 0 0 0 0 0 0 0 0 0 0 0 0 0 0 0 0 0 0 0 0 0 0 0 0 0 0 0 0 0 0 0 0 0 0 0 0 0 0 0 0 0 0 0 0 0 0 0 0 0 0 0 0 0 0 0 0 0 0 0 0 0 0 0 0 0 0 0 0 0 0 0 0 0 0 0 0 0 0 0 0 0 0 0 0 0 0 0 0 0 0 0 0 0 0 0 0 0 0 0 0 0 0 0 0 0 0 0 0 0 0 0 0 0 0 0 0 0 0 0 0 0 0 0 0 0 0 0 0 0 0 0 0 0 0 0 0 0 0 0 0 0 0 0 0 0 0 0 0 25 47 44 51 63 51 24 9 3 0 0 0 0 0 0 0 0 0 0 0 0 0 0 0 0 0 2 4 5 8 10 7 4 1 0 0 0 0 0 0 0 0 0 0 0 0 0 0 0 0 0 0 0 0 0 0 0 0 0 0 0 0 0 0 0 0 0 0 0 0 0 0 0 0 0 0 0 0 0 0 0 0 0 0 0 0 0 0 0 0 0 0 0 0 0 0 0 0 0 0 0 0 0 0 0 0 0 0 0 0 0 0 0 0 0 0 0 0 0 0 0 0 0 0 0 0 0 0 0 0 0 0 0 0 0 0 0 0 0 0 0 0 0 0 0 0 0 0 0 0 0 0 0 0 0 0 0 0 0 0 0 0 0 0 0 0 0 0 0 0 0 0 0 0 0 0 0 0 0 0 0 0 0 0 0 0 0 0 0 0 0 0 0 0 0 0 0 0 0 0 0 0 0 0 0 0 0 0 0 0 0 0 0 0 0 0 0 0 0 0 0 0 0 0 0 0 0 0 0 0 0 0 0 0 0 0 0 0 0 0 0 0 0 0 0 0 0 0 0 0 0 0 0 0 0 0 0 0 0 0 0 0 0 0 0 0 0 0 0 0 0 0 0 0 0 0 0 0 0 0 0 0 0 0 0 0 0 0 0 0 0 0 0 0 0 0 0 0 0 0 0 0 0 0 0 0 0 0 0 0 0 0 0 0 0 0 0 0 0 0 0 0 0 0 0 0 0 0 0 0 0 0 0 0 0 0 0 0 0 0 0 0 0 0 0 0 0 0 0 0 0 0 0 0 0 0 0 0 0 0 0 0 0 0 0 0 0 0 0 0 0 0 0 0 0 0 0 0 0 0 0 0 0 0 0 0 0 0 0 0 0 0 0 0 0 0 0 0 0 0 0 0 0 0 0 0 0 0 0 0 0 0 0 0 0 0 0 0 0 0 0 0 0 0 0 0 0 0 0 0 0 0 0 0 0 0 0 0 0 0 0 0 0 0 0 0 0 0 0 0 0 0 0 0 0 0 0 0 0 0 0 0 0 0 0 0 0 0 0 0 0 0 0 0 0 0 0 0 0 0 0 0 0 0 0 0 0 0 0 0 0 0 0 0 0 0 0 0 0 0 0 0 0 0 0 0 0 0 0 0 0 0 0 0 0 0 0 0 0 0 0 0 0 0 0 0 0 0 0 0 0 0 0 0 0 0 0 0 0 0 0 0 0 0 0 0 0 0 0 0 0 0 0 0 0 0 0 0 0 0 0 0 0 0 0 0 0 0 0 0 0 0 0 0 0 0 0 0 0 0 0 0 0 0 0 0 0 0 0 0 0 0 0 0 0 0 0 0 0 0 0 0 0 0 0 0 0 0 0 0 0 0 0 0 0 0 0 0 0 0 0 0 0 0 0 0 0 0 0 0 0 0 0 0 0 0 0 0 0 0 0 0 0 0 0 0 0 0 0 0 0 0 0 0 0 0 0 0 0 0 0 0 0 0 0 0 0 0 0 0 0 0 0 0 0 0 77 115 98 85 79 65 29 10 3 0 0 0 0 0 0 0 0 0 0 0 0 0 0 0 0 0 13 17 19 21 13 7 3 1 0 0 0 0 0 0 0 0 0 0 0 0 0 0 0 0 0 0 0 1 1 1 1 0 0 0 0 0 0 0 0 0 0 0 0 0 0 0 0 0 0 0 0 0 0 0 0 0 0 0 0 0 0 0 0 0 0 0 0 0 0 0 0 0 0 0 0 0 0 0 0 0 0 0 0 0 0 0 0 0 0 0 0 0 0 0 0 0 0 0 0 0 0 0 0 0 0 0 0 0 0 0 0 0 0 0 0 0 0 0 0 0 0 0 0 0 0 0 0 0 0 0 0 0 0 0 0 0 0 0 0 0 0 0 0 0 0 0 0 0 0 0 0 0 0 0 0 0 0 0 0 0 0 0 0 0 0 0 0 0 0 0 0 0 0 0 0 0 0 0 0 0 0 0 0 0 0 0 0 0 0 0 0 0 0 0 0 0 0 0 0 0 0 0 0 0 0 0 0 0 0 0 0 0 0 0 0 0 0 0 0 0 0 0 0 0 0 0 0 0 0 0 0 0 0 0 0 0 0 0 0 0 0 0 0 0 0 0 0 0 0 0 0 0 0 0 0 0 0 0 0 0 0 0 0 0 0 0 0 0 0 0 0 0 0 0 0 0 0 0 0 0 0 0 0 0 0 0 0 0 0 0 0 0 0 0 0 0 0 0 0 0 0 0 0 0 0 0 0 0 0 0 0 0 0 0 0 0 0 0 0 0 0 0 0 0 0 0 0 0 0 0 0 0 0 0 0 0 0 0 0 0 0 0 0 0 0 0 0 0 0 0 0 0 0 0 0 0 0 0 0 0 0 0 0 0 0 0 0 0 0 0 0 0 0 0 0 0 0 0 0 0 0 0 0 0 0 0 0 0 0 0 0 0 0 0 0 0 0 0 0 0 0 0 0 0 0 0 0 0 0 0 0 0 0 0 0 0 0 0 0 0 0 0 0 0 0 0 0 0 0 0 0 0 0 0 0 0 0 0 0 0 0 0 0 0 0 0 0 0 0 0 0 0 0 0 0 0 0 0 0 0 0 0 0 0 0 0 0 0 0 0 0 0 0 0 0 0 0 0 0 0 0 0 0 0 0 0 0 0 0 0 0 0 0 0 0 0 0 0 0 0 0 0 0 0 0 0 0 0 0 0 0 0 0 0 0 0 0 0 0 0 0 0 0 0 0 0 0 0 0 0 0 0 0 0 0 0 0 0 0 0 0 0 0 0 0 0 0 0 0 0 0 0 0 0 0 0 0 0 0 0 0 0 0 0 0 0 0 0 0 0 0 0 0 0 0 0 0 0 0 0 0 0 0 0 0 0 0 0 0 0 0 0 0 0 0 0 0 0 0 0 0 0 0 0 0 0 0 0 0 0 0 0 0 0 0 0 0 0 0 0 0 0 0 0 0 0 0 0 0 0 0 0 0 0 0 0 0 0 0 0 0 0 0 0 0 0 0 0 0 0 85 125 105 81 57 45 24 11 3 1 0 0 0 0 0 0 0 0 0 0 0 0 0 0 0 0 14 18 22 22 11 5 2 1 0 0 0 0 0 0 0 0 0 0 0 0 0 0 0 0 0 0 0 1 1 1 0 0 0 0 0 0 0 0 0 0 0 0 0 0 0 0 0 0 0 0 0 0 0 0 0 0 0 0 0 0 0 0 0 0 0 0 0 0 0 0 0 0 0 0 0 0 0 0 0 0 0 0 0 0 0 0 0 0 0 0 0 0 0 0 0 0 0 0 0 0 0 0 0 0 0 0 0 0 0 0 0 0 0 0 0 0 0 0 0 0 0 0 0 0 0 0 0 0 0 0 0 0 0 0 0 0 0 0 0 0 0 0 0 0 0 0 0 0 0 0 0 0 0 0 0 0 0 0 0 0 0 0 0 0 0 0 0 0 0 0 0 0 0 0 0 0 0 0 0 0 0 0 0 0 0 0 0 0 0 0 0 0 0 0 0 0 0 0 0 0 0 0 0 0 0 0 0 0 0 0 0 0 0 0 0 0 0 0 0 0 0 0 0 0 0 0 0 0 0 0 0 0 0 0 0 0 0 0 0 0 0 0 0 0 0 0 0 0 0 0 0 0 0 0 0 0 0 0 0 0 0 0 0 0 0 0 0 0 0 0 0 0 0 0 0 0 0 0 0 0 0 0 0 0 0 0 0 0 0 0 0 0 0 0 0 0 0 0 0 0 0 0 0 0 0 0 0 0 0 0 0 0 0 0 0 0 0 0 0 0 0 0 0 0 0 0 0 0 0 0 0 0 0 0 0 0 0 0 0 0 0 0 0 0 0 0 0 0 0 0 0 0 0 0 0 0 0 0 0 0 0 0 0 0 0 0 0 0 0 0 0 0 0 0 0 0 0 0 0 0 0 0 0 0 0 0 0 0 0 0 0 0 0 0 0 0 0 0 0 0 0 0 0 0 0 0 0 0 0 0 0 0 0 0 0 0 0 0 0 0 0 0 0 0 0 0 0 0 0 0 0 0 0 0 0 0 0 0 0 0 0 0 0 0 0 0 0 0 0 0 0 0 0 0 0 0 0 0 0 0 0 0 0 0 0 0 0 0 0 0 0 0 0 0 0 0 0 0 0 0 0 0 0 0 0 0 0 0 0 0 0 0 0 0 0 0 0 0 0 0 0 0 0 0 0 0 0 0 0 0 0 0 0 0 0 0 0 0 0 0 0 0 0 0 0 0 0 0 0 0 0 0 0 0 0 0 0 0 0 0 0 0 0 0 0 0 0 0 0 0 0 0 0 0 0 0 0 0 0 0 0 0 0 0 0 0 0 0 0 0 0 0 0 0 0 0 0 0 0 0 0 0 0 0 0 0 0 0 0 0 0 0 0 0 0 0 0 0 0 0 0 0 0 0 0 0 0 0 0 0 0 0 0 0 0 0 0 0 0 0 0 0 0 0 0 0 0 0 0 0 0 0 0 0 0 0 0 0 0 0 0 0 0 0 0 0 0 0 0 0 42 66 49 35 27 18 12 8 3 1 0 0 0 0 0 0 0 0 0 0 0 0 0 0 0 0 5 7 9 8 6 3 1 1 0 0 0 0 0 0 0 0 0 0 0 0 0 0 0 0 0 0 1 1 1 1 1 0 0 0 0 0 0 0 0 0 0 0 0 0 0 0 0 0 0 0 0 0 0 0 0 0 0 0 0 0 0 0 0 0 0 0 0 0 0 0 0 0 0 0 0 0 0 0 0 0 0 0 0 0 0 0 0 0 0 0 0 0 0 0 0 0 0 0 0 0 0 0 0 0 0 0 0 0 0 0 0 0 0 0 0 0 0 0 0 0 0 0 0 0 0 0 0 0 0 0 0 0 0 0 0 0 0 0 0 0 0 0 0 0 0 0 0 0 0 0 0 0 0 0 0 0 0 0 0 0 0 0 0 0 0 0 0 0 0 0 0 0 0 0 0 0 0 0 0 0 0 0 0 0 0 0 0 0 0 0 0 0 0 0 0 0 0 0 0 0 0 0 0 0 0 0 0 0 0 0 0 0 0 0 0 0 0 0 0 0 0 0 0 0 0 0 0 0 0 0 0 0 0 0 0 0 0 0 0 0 0 0 0 0 0 0 0 0 0 0 0 0 0 0 0 0 0 0 0 0 0 0 0 0 0 0 0 0 0 0 0 0 0 0 0 0 0 0 0 0 0 0 0 0 0 0 0 0 0 0 0 0 0 0 0 0 0 0 0 0 0 0 0 0 0 0 0 0 0 0 0 0 0 0 0 0 0 0 0 0 0 0 0 0 0 0 0 0 0 0 0 0 0 0 0 0 0 0 0 0 0 0 0 0 0 0 0 0 0 0 0 0 0 0 0 0 0 0 0 0 0 0 0 0 0 0 0 0 0 0 0 0 0 0 0 0 0 0 0 0 0 0 0 0 0 0 0 0 0 0 0 0 0 0 0 0 0 0 0 0 0 0 0 0 0 0 0 0 0 0 0 0 0 0 0 0 0 0 0 0 0 0 0 0 0 0 0 0 0 0 0 0 0 0 0 0 0 0 0 0 0 0 0 0 0 0 0 0 0 0 0 0 0 0 0 0 0 0 0 0 0 0 0 0 0 0 0 0 0 0 0 0 0 0 0 0 0 0 0 0 0 0 0 0 0 0 0 0 0 0 0 0 0 0 0 0 0 0 0 0 0 0 0 0 0 0 0 0 0 0 0 0 0 0 0 0 0 0 0 0 0 0 0 0 0 0 0 0 0 0 0 0 0 0 0 0 0 0 0 0 0 0 0 0 0 0 0 0 0 0 0 0 0 0 0 0 0 0 0 0 0 0 0 0 0 0 0 0 0 0 0 0 0 0 0 0 0 0 0 0 0 0 0 0 0 0 0 0 0 0 0 0 0 0 0 0 0 0 0 0 0 0 0 0 0 0 0 0 0 0 0 0 0 0 0 0 0 0 0 0 0 0 0 0 0 0 0 0 0 0 0 0 0 0 0 0 0 0 0 0 0 0 0 0 0 0 0 0 0 0 18 26 24 31 34 22 9 9 10 7 3 0 0 0 0 0 0 0 0 0 0 0 0 0 0 0 8 9 8 10 13 8 2 2 1 1 0 0 0 0 0 0 0 0 0 0 0 0 0 0 0 0 3 4 3 2 3 2 1 1 0 0 0 0 0 0 0 0 0 0 0 0 0 0 0 0 0 0 1 1 1 1 1 1 1 0 0 0 0 0 0 0 0 0 0 0 0 0 0 0 0 0 0 0 0 1 1 1 1 1 1 0 0 0 0 0 0 0 0 0 0 0 0 0 0 0 0 0 0 0 0 0 1 1 1 1 1 0 0 0 0 0 0 0 0 0 0 0 0 0 0 0 0 0 0 0 0 0 0 1 1 1 1 1 0 0 0 0 0 0 0 0 0 0 0 0 0 0 0 0 0 0 0 0 0 1 1 1 1 1 1 0 0 0 0 0 0 0 0 0 0 0 0 0 0 0 0 0 0 0 0 1 1 1 1 1 1 0 0 0 0 0 0 0 0 0 0 0 0 0 0 0 0 0 0 0 1 1 1 1 1 1 0 0 0 0 0 0 0 0 0 0 0 0 0 0 0 0 0 0 1 1 1 1 1 1 0 0 0 0 0 0 0 0 0 0 0 0 0 0 0 0 0 0 0 0 1 1 1 1 1 1 0 0 0 0 0 0 0 0 0 0 0 0 0 0 0 0 0 0 0 0 1 1 1 1 0 0 0 0 0 0 0 0 0 0 0 0 0 0 0 0 0 0 0 0 0 0 1 0 1 1 0 0 0 0 0 0 0 0 0 0 0 0 0 0 0 0 0 0 0 0 0 0 1 0 0 0 0 0 0 0 0 0 0 0 0 0 0 0 0 0 0 0 0 0 0 0 0 0 0 0 0 0 0 0 0 0 0 0 0 0 0 0 0 0 0 0 0 0 0 0 0 0 0 0 0 0 0 0 0 0 0 0 0 0 0 0 0 0 0 0 0 0 0 0 0 0 0 0 0 0 0 0 0 0 0 0 0 0 0 0 0 0 0 0 0 0 0 0 0 0 0 0 0 0 0 0 0 0 0 0 0 0 0 0 0 0 0 0 0 0 0 0 0 0 0 0 0 0 0 0 0 0 0 0 0 0 0 0 0 0 0 0 0 0 0 0 0 0 0 0 0 0 0 0 0 0 0 0 0 0 0 0 0 0 0 0 0 0 0 0 0 0 1 0 0 0 0 0 0 0 0 0 0 0 0 0 0 0 0 0 0 0 0 0 0 0 0 0 1 1 0 0 0 0 0 0 0 0 0 0 0 0 0 0 0 0 0 0 0 0 0 0 0 0 1 1 0 0 0 0 0 0 0 0 0 0 0 0 0 0 0 0 0 0 0 0 0 0 0 0 0 1 0 0 0 0 0 0 0 0 0 0 0 0 0 0 0 0 0 0 0 0 0 0 0 0 0 0 0 0 0 0 0 0 0 0 0 0 0 0 0 0 0 0 0 0 0 0 0 0 0 0 0 0 0 0 0 0 0 0 0 0 0 0 23 33 39 54 59 44 36 40 33 19 10 4 2 2 1 1 0 0 0 0 0 0 0 0 0 0 26 26 28 30 30 18 13 14 10 7 6 3 2 1 1 1 0 0 0 0 0 0 0 0 0 0 29 17 14 10 11 10 9 9 7 5 3 2 1 1 1 1 0 0 0 0 0 0 0 0 0 0 25 10 6 6 8 9 9 9 7 5 3 2 1 1 1 1 0 0 0 0 0 0 0 0 0 0 14 9 6 5 7 9 9 9 7 4 2 1 1 1 1 1 0 0 0 0 0 0 1 0 0 0 7 7 5 4 6 8 8 8 7 5 2 1 1 1 1 1 0 0 0 0 0 0 0 0 0 0 3 4 4 4 5 7 8 9 9 7 3 2 1 2 2 1 1 0 0 0 0 0 0 0 0 0 2 3 3 4 5 8 11 12 13 9 4 2 2 2 2 1 1 1 1 0 0 0 0 0 0 0 3 4 4 4 7 10 12 14 14 9 4 3 2 2 2 1 1 1 1 1 0 0 0 0 0 0 4 6 5 6 9 12 13 13 12 6 4 3 2 2 2 1 1 1 1 1 1 0 0 0 0 0 6 8 8 8 11 13 12 12 10 4 3 3 2 2 2 1 1 1 1 1 1 0 0 0 0 0 8 9 11 11 14 14 9 9 7 2 2 3 3 2 2 1 1 1 1 1 1 1 0 0 0 0 10 9 12 11 11 12 7 5 4 2 2 3 4 3 1 1 1 1 1 2 2 1 1 0 0 0 10 7 8 7 5 7 5 3 2 2 2 3 4 3 1 1 1 1 2 3 3 3 1 0 0 0 8 5 5 4 4 3 3 2 2 1 2 3 4 3 1 1 1 1 2 4 6 5 3 1 0 0 7 4 3 3 3 2 2 1 1 1 2 2 3 3 2 1 1 1 2 5 8 9 6 2 0 0 8 4 3 3 2 1 1 1 1 1 2 2 3 4 2 1 1 1 2 4 8 12 11 6 1 0 7 4 3 2 2 1 1 1 1 1 2 2 4 4 3 2 1 1 1 2 6 11 12 8 3 0 5 4 3 3 2 1 1 1 1 1 2 3 4 5 5 3 1 1 1 1 3 6 9 8 3 0 3 3 4 3 2 1 1 1 1 1 2 3 4 7 7 5 2 1 0 0 0 2 3 3 1 0 3 4 4 3 2 1 1 1 1 1 2 3 5 9 12 10 5 2 0 0 0 0 0 0 0 0 3 5 5 4 2 1 1 1 1 1 2 3 5 10 17 17 9 3 0 0 0 0 0 0 0 0 5 6 6 4 3 2 1 1 1 1 2 3 5 11 22 24 15 6 1 0 0 0 0 0 0 0 6 7 6 4 2 1 1 1 1 1 1 2 4 10 22 29 22 9 2 0 0 0 0 0 0 0 4 5 4 2 1 0 0 0 0 0 0 1 2 5 14 20 17 7 1 0 0 0 0 0 0 0 1 1 1 1 0 0 0 0 0 0 0 0 0 1 3 8 9 3 0 0 0 0 0 0 0 0 41 57 78 116 120 91 80 78 63 42 34 27 19 15 12 9 7 7 8 9 11 10 7 5 2 1 59 52 58 78 76 54 50 44 33 34 33 24 21 16 11 9 8 7 7 8 9 8 6 5 3 1 78 51 40 38 44 51 54 45 33 34 32 26 23 16 11 10 8 7 6 8 9 9 8 8 5 1 85 54 40 32 37 49 57 49 36 33 29 26 24 17 12 9 8 7 6 8 9 10 11 11 7 2 75 53 40 32 35 45 53 46 37 32 25 22 22 20 14 10 8 7 7 8 9 10 12 13 9 2 56 46 40 36 32 40 46 43 41 36 24 20 20 23 19 12 8 7 7 7 8 10 12 15 11 3 29 31 36 35 29 41 47 47 53 45 30 22 21 25 23 14 9 8 8 7 7 9 13 16 11 3 15 20 26 28 31 52 61 62 65 54 38 27 23 27 27 16 9 9 9 8 7 9 13 16 11 3 14 18 21 24 35 60 70 70 69 58 45 31 24 28 29 18 9 9 10 9 7 8 12 15 10 2 19 23 26 28 39 62 72 72 74 61 42 29 25 29 33 21 9 8 10 10 8 9 11 12 7 1 24 31 37 41 48 66 77 84 81 54 30 25 27 32 37 26 10 8 10 10 10 9 9 8 4 1 30 36 48 54 62 72 74 82 70 34 20 25 33 38 40 27 10 8 10 12 12 11 9 6 2 0 37 39 55 58 61 73 67 59 44 21 19 28 40 44 38 22 9 8 12 16 17 16 12 7 3 0 41 40 52 51 45 61 65 46 29 19 19 31 45 48 35 16 8 9 15 22 27 26 18 10 4 1 39 37 38 37 32 41 51 38 24 17 18 29 43 44 27 12 7 10 19 31 41 41 31 18 7 1 39 35 27 22 21 22 29 24 17 14 14 23 36 35 20 10 8 12 23 39 54 59 50 32 13 2 45 36 22 15 14 12 14 14 11 11 11 17 29 30 18 11 10 15 26 42 60 72 70 52 24 4 50 36 21 13 11 9 9 10 9 10 10 14 24 28 20 13 12 16 26 39 56 74 79 68 38 13 42 31 24 15 11 8 7 9 10 11 13 14 21 28 26 18 15 18 24 33 43 60 72 68 42 19 27 27 30 20 12 8 6 8 11 14 19 18 20 32 36 30 23 20 22 23 25 34 48 51 32 13 22 27 32 25 16 11 8 8 11 17 25 25 24 39 52 49 39 29 20 12 7 9 18 23 13 4 28 29 30 29 24 17 13 11 11 19 33 33 30 47 69 73 61 42 22 6 0 1 2 4 2 0 40 40 37 37 36 27 20 13 9 18 36 39 37 56 83 93 82 56 25 5 0 0 0 0 0 0 54 57 47 40 36 28 20 11 6 13 32 41 41 59 89 102 93 68 32 7 0 0 0 0 0 0 58 61 47 32 23 15 10 5 3 6 17 26 32 49 76 92 88 63 28 5 0 0 0 0 0 0 43 57 35 19 13 3 2 1 1 1 3 5 11 20 51 79 78 53 19 2 0 0 0 0 0 0 76 97 118 172 184 160 134 119 104 88 77 64 53 47 41 37 37 38 43 51 60 61 53 35 16 5 87 75 87 141 161 145 127 109 92 90 84 73 66 54 43 40 39 37 40 48 55 53 40 25 16 6 118 96 78 93 120 132 133 119 99 95 90 84 79 60 45 44 43 38 40 49 55 51 39 28 21 9 133 114 94 81 94 122 139 127 106 98 93 89 83 63 48 47 45 39 41 52 58 52 41 36 33 16 123 117 107 101 109 131 146 135 115 103 92 85 79 66 54 51 45 39 43 53 56 50 43 45 47 24 101 116 126 125 123 134 146 138 122 108 92 81 77 74 67 59 47 40 45 51 51 44 44 54 59 43 71 106 135 133 120 130 142 141 133 121 107 94 85 87 84 71 52 43 48 51 45 40 47 62 65 58 53 85 126 126 118 134 146 147 142 135 129 114 97 98 99 79 52 44 53 52 41 39 51 68 67 57 53 67 100 109 117 136 143 141 138 143 145 125 102 105 108 81 47 43 54 51 38 40 56 70 65 53 63 66 79 91 108 129 136 136 142 150 146 120 99 108 116 87 46 39 50 48 39 44 59 68 58 44 72 76 84 91 106 130 144 152 157 146 124 102 96 111 123 99 52 37 46 46 42 49 59 60 47 33 82 87 99 106 118 136 149 158 151 119 91 90 102 118 128 105 57 35 44 48 48 53 55 51 37 26 104 107 121 128 133 145 148 144 124 87 78 96 114 128 128 96 49 33 45 55 57 58 53 47 36 19 123 126 137 139 139 151 152 132 104 81 84 107 126 133 119 75 35 32 49 66 73 71 60 50 42 17 126 131 132 127 130 138 139 122 99 84 87 109 126 126 100 56 30 34 55 79 93 92 77 62 49 30 117 122 115 102 106 102 97 100 93 80 72 91 112 109 78 45 34 40 62 88 108 112 100 81 58 39 105 102 93 82 81 64 58 74 77 62 46 63 91 91 63 43 43 52 70 93 114 125 120 104 73 34 97 81 71 69 63 45 45 60 59 45 32 44 73 78 59 47 50 62 79 97 115 129 132 124 95 56 86 71 63 60 54 37 39 57 59 49 39 39 57 68 62 56 58 69 86 101 112 126 134 133 108 82 72 75 73 60 47 33 31 51 62 60 54 46 49 64 71 71 72 78 89 96 97 104 118 125 102 76 65 80 83 65 45 33 29 43 58 67 72 64 58 70 84 90 92 92 88 75 58 56 77 93 72 47 68 79 87 76 55 44 41 44 51 70 89 85 75 84 100 111 115 109 88 52 19 13 28 41 30 14 83 87 92 90 78 66 60 51 43 65 97 100 90 98 116 127 131 122 89 38 5 1 3 6 4 1 106 105 100 97 89 76 63 48 38 54 94 110 103 111 127 135 138 129 95 41 6 0 0 0 0 0 120 118 103 92 76 61 44 31 32 43 78 98 101 113 129 138 138 128 93 40 6 0 0 0 0 0 101 120 97 81 62 42 27 18 26 37 62 76 86 98 120 137 137 123 85 33 4 0 0 0 0 0 139 164 174 202 208 200 190 180 167 153 137 118 107 105 107 110 114 117 118 116 116 119 118 108 87 55 139 130 154 194 204 195 185 172 154 142 133 124 119 115 114 115 118 119 118 116 113 113 107 93 74 59 148 137 143 173 188 187 185 174 156 145 139 136 134 128 123 123 125 124 122 118 114 112 104 88 69 56 159 151 145 156 172 183 188 179 162 152 148 146 144 137 130 130 131 129 124 119 116 113 103 89 77 64 161 162 157 162 177 190 195 187 172 161 155 153 150 142 135 136 135 129 121 116 116 112 103 93 90 76 157 172 176 179 188 195 200 194 180 167 161 157 154 148 143 143 138 126 116 114 114 108 100 98 102 95 143 171 188 189 190 194 200 199 188 176 173 168 161 157 155 151 139 121 115 116 113 103 97 101 107 107 127 156 188 193 191 193 197 200 194 189 189 183 171 166 166 157 135 118 118 119 110 97 95 104 108 107 123 141 176 189 192 189 187 192 190 196 201 193 178 174 174 158 130 116 120 117 102 91 97 107 108 105 132 141 164 179 187 183 179 183 187 200 205 195 181 181 181 161 130 115 114 104 91 89 100 108 106 100 142 149 160 171 183 186 182 184 189 198 198 189 183 186 187 169 136 112 101 91 85 91 101 107 101 93 153 158 163 170 183 189 185 185 187 188 185 184 187 192 191 174 138 101 88 85 87 94 101 106 98 87 170 172 176 181 190 192 186 182 178 173 175 184 192 195 192 168 121 83 81 88 93 98 102 106 97 82 185 186 189 192 198 199 191 180 170 164 169 184 194 195 184 145 91 70 81 96 104 107 105 107 102 82 190 192 192 191 197 197 188 177 167 161 165 181 189 185 163 115 73 68 85 105 117 119 114 111 108 95 185 189 186 179 185 179 164 167 166 159 157 167 173 164 135 97 76 75 91 112 126 131 126 121 112 102 174 178 175 166 165 145 128 147 158 152 137 135 143 139 117 96 88 90 102 118 131 137 136 132 116 91 163 163 163 153 134 106 102 131 148 139 108 92 109 118 110 102 100 105 116 127 137 144 146 145 126 98 147 145 147 138 107 82 93 130 147 129 90 71 85 99 105 108 109 115 127 137 145 151 156 155 140 124 130 133 132 122 96 76 87 128 147 127 93 77 78 87 100 111 117 124 133 142 146 148 153 156 144 131 122 131 129 112 87 73 82 119 137 124 107 93 86 89 99 114 126 133 136 134 120 111 124 140 129 110 119 129 132 115 88 80 88 107 116 116 117 110 101 99 105 119 135 141 138 114 68 44 67 95 82 57 122 127 133 123 102 98 105 104 99 109 123 122 114 110 114 124 139 147 136 89 25 5 16 31 23 9 132 132 133 129 117 114 114 107 102 110 129 137 132 125 125 130 141 149 135 83 20 1 0 1 1 0 144 140 136 131 118 112 101 94 100 108 130 144 146 143 141 141 146 150 137 88 25 1 0 0 0 0 123 144 137 131 113 102 85 78 93 103 126 143 149 150 150 149 150 151 136 86 23 0 0 0 0 0 107 130 138 153 150 148 148 142 131 118 104 89 80 81 86 90 94 97 95 87 81 83 88 88 78 51 108 102 124 151 149 141 137 129 113 100 94 88 85 88 92 95 98 100 97 88 80 81 84 79 64 54 101 96 113 142 147 140 137 127 110 100 96 94 95 98 100 101 103 105 101 90 81 82 83 73 56 50 108 101 105 126 140 140 137 128 114 106 104 104 106 108 107 107 109 110 102 89 82 83 82 70 56 54 120 114 108 118 135 142 140 133 122 115 113 114 115 114 111 111 114 111 98 86 83 84 80 69 60 60 125 127 121 124 139 147 146 141 131 121 120 122 122 117 114 115 116 107 91 84 85 84 76 67 64 64 116 127 132 135 144 149 151 150 139 129 129 129 126 120 118 119 114 100 87 87 87 81 70 64 65 66 102 116 136 144 149 147 148 153 147 141 140 138 131 125 124 122 110 94 89 90 87 76 65 63 65 67 96 109 135 149 152 142 139 147 147 149 151 147 138 132 130 123 106 93 90 88 80 68 62 63 66 68 101 112 134 148 152 140 132 138 140 150 157 154 146 141 136 124 107 94 86 76 67 61 61 64 67 69 110 118 131 141 150 145 133 131 134 148 157 155 152 148 141 128 110 92 74 62 58 59 62 67 70 69 118 123 129 135 147 147 133 126 131 145 154 156 156 154 147 132 109 82 61 55 57 60 65 73 73 69 128 129 131 136 147 145 131 125 130 140 148 153 157 155 148 128 94 63 52 54 59 63 70 77 74 68 138 137 138 142 150 148 135 126 128 131 136 147 154 152 140 109 69 50 51 57 63 68 73 77 75 70 143 142 142 144 151 149 136 127 125 123 127 140 146 139 119 84 55 48 53 61 69 74 76 78 77 75 142 144 141 138 145 139 124 123 123 123 125 130 129 116 94 71 55 51 57 65 73 78 80 81 79 76 139 143 140 131 129 114 99 111 122 124 116 105 99 93 82 71 62 59 64 71 77 82 85 86 78 69 132 137 136 122 100 79 75 100 120 119 93 67 67 76 79 76 70 69 73 78 83 88 92 92 77 64 116 119 123 109 75 58 68 99 120 106 69 48 51 63 74 78 77 77 79 85 91 95 99 98 86 76 98 99 101 93 68 55 68 101 117 96 64 51 50 54 65 75 79 81 84 91 96 97 98 99 93 87 90 91 88 80 63 54 66 97 108 89 68 58 54 54 60 72 81 84 88 91 86 77 80 91 88 79 88 89 88 76 61 56 65 83 88 77 69 63 59 58 62 72 82 87 90 82 53 33 46 67 61 45 85 88 88 78 63 64 73 76 74 73 71 68 65 63 65 73 83 90 90 64 21 4 13 26 20 8 86 87 88 81 72 75 82 80 79 80 80 81 78 73 70 75 84 91 87 56 15 1 0 1 1 0 90 89 89 85 77 78 76 75 80 82 87 94 95 89 84 84 88 93 88 60 19 1 0 0 0 0 73 90 90 86 77 74 66 66 75 78 87 98 101 98 94 91 92 95 90 63 20 0 0 0 0 0 0 0 0 0 0 0 0 0 0 0 0 0 0 0 0 0 0 0 0 0 0 0 0 0 0 0 0 0 0 0 0 0 0 0 0 0 0 0 0 0 0 0 0 0 0 0 0 0 0 0 0 0 0 0 0 0 0 0 0 0 0 0 0 0 0 0 0 0 0 0 0 0 0 0 0 0 0 0 0 0 0 0 0 0 0 0 0 0 0 0 0 0 0 0 0 0 0 0 0 0 0 0 0 0 0 0 0 0 0 0 0 0 0 0 0 0 0 0 0 0 0 0 0 0 0 0 0 0 0 0 0 0 0 0 0 0 0 0 0 0 0 0 0 0 0 0 0 0 0 0 0 0 0 0 0 0 0 0 0 0 0 0 0 0 0 0 0 0 0 0 0 0 0 0 0 0 0 0 0 0 0 0 0 0 0 0 0 0 0 0 0 0 0 0 0 0 0 0 0 0 0 0 0 0 0 0 0 0 0 0 0 0 0 0 0 0 0 0 0 0 0 0 0 0 0 0 0 0 0 0 0 0 0 0 0 0 0 0 0 0 0 0 0 0 0 0 0 0 0 0 0 0 0 0 0 0 0 0 0 0 0 0 0 0 0 0 0 0 0 0 0 0 0 0 0 0 0 0 0 0 0 0 0 0 0 0 0 0 0 0 0 0 0 0 0 0 0 0 0 0 0 0 0 0 0 0 0 0 0 0 0 0 0 0 0 0 0 0 0 0 0 0 0 0 0 0 0 0 0 0 0 0 0 0 0 0 0 0 0 0 0 0 0 0 0 0 0 0 0 0 0 0 0 0 0 0 0 0 0 0 0 0 0 0 0 0 0 0 0 0 0 0 0 0 0 0 0 0 0 0 0 0 0 0 0 0 0 0 0 0 0 0 0 0 0 0 0 0 0 0 0 0 0 0 0 0 0 0 0 0 0 0 0 0 0 0 0 0 0 0 0 0 0 0 0 0 0 0 0 0 0 0 0 0 0 0 0 0 0 0 0 0 0 0 0 0 0 0 0 0 0 0 0 0 0 0 0 0 0 0 0 0 0 0 0 0 0 0 0 0 0 0 0 0 0 0 0 0 0 0 0 0 0 0 0 0 0 0 0 0 0 0 0 0 0 0 0 0 0 0 0 0 0 0 0 0 0 0 0 0 0 0 0 0 0 0 0 0 0 0 0 0 0 0 0 0 0 0 0 0 0 0 0 0 0 0 0 0 0 0 0 0 0 0 0 0 0 0 0 0 0 0 0 0 0 0 0 0 0 0 0 0 0 0 0 0 0 0 0 0 0 0 0 0 0 0 0 0 0 0 0 0 0 0 0 0 0 0 0 0 0 0 0 0 0 0 0 0 0 0 0 0 0 0 0 0 0 0 0 0 0 0 0 0 0 0 0 0 0 0 0 0 0 0 0 0 0 0 0 0 0 0 0 0 0 0 0 0 0 0 0 0 0 0 0 0 0 0 0 0 0 0 0 0 0 0 0 0 0 0 0 0 0 0 0 0 0 0 0 0 0 0 0 0 0 0 
</DataArray>
<DataArray Name="HRRPUV" NumberOfComponents="1" type="UInt8" format="ascii">