<?xml version="1.0"?>
<VTKFile type="RectilinearGrid" version="1.0" byte_order="LittleEndian" header_type="UInt64">
<RectilinearGrid WholeExtent="25 50 25 50 0 15">
<Piece Extent="25 50 25 50 0 15">
<Coordinates>
<DataArray type="Float64" Name="Array X-Axis" format="ascii" RangeMin="15.0" RangeMax="30.0">
15.0 15.6 16.2 16.8 17.4 18.0 18.6 19.2 19.8 20.4 21.0 21.6 22.2 22.8 23.4 24.0 24.6 25.2 25.8 26.4 27.0 27.6 28.2 28.8 29.4 30.0 
</DataArray>
<DataArray type="Float64" Name="Array Y-Axis" format="ascii" RangeMin="15.0" RangeMax="30.0">
15.0 15.6 16.2 16.8 17.4 18.0 18.6 19.2 19.8 20.4 21.0 21.6 22.2 22.8 23.4 24.0 24.6 25.2 25.8 26.4 27.0 27.6 28.2 28.8 29.4 30.0 
</DataArray>
<DataArray type="Float64" Name="Array Z-Axis" format="ascii" RangeMin="0.0" RangeMax="9.0">
0.0 0.6 1.2 1.8 2.4 3.0 3.6 4.2 4.8 5.4 6.0 6.6 7.2 7.8 8.4 9.0 
</DataArray>
</Coordinates>
<PointData>
<DataArray Name="SOOT DENSITY" NumberOfComponents="1" type="UInt8" format="ascii">
0 0 0 0 0 1 1 2 1 0 0 0 0 0 0 0 0 0 0 0 0 0 0 0 0 0 0 0 0 0 0 0 0 0 0 0 0 0 0 0 0 0 0 0 0 0 0 0 0 0 0 0 0 0 0 0 0 0 0 0 0 0 0 0 0 0 0 0 0 0 0 0 0 0 0 0 0 0 0 0 0 0 0 0 0 0 0 0 0 0 0 0 0 0 0 0 0 0 0 0 0 0 0 0 0 0 0 0 0 0 0 0 0 0 0 0 0 0 0 0 0 0 0 0 0 0 0 0 0 0 0 0 0 0 0 0 0 0 0 0 0 0 0 0 0 0 0 0 0 0 0 0 0 0 0 0 0 0 0 0 0 0 0 0 0 0 0 0 0 0 0 0 0 0 0 0 0 0 0 0 0 0 0 0 0 0 0 0 0 0 0 0 0 0 0 0 0 0 0 0 0 0 0 0 0 0 0 0 0 0 0 0 0 0 0 0 0 0 0 0 0 0 0 0 0 0 0 0 0 0 0 0 0 0 0 0 0 0 0 0 0 0 0 0 0 0 0 0 0 0 0 0 0 0 0 0 0 0 0 0 0 0 0 0 0 0 0 0 0 0 0 0 0 0 0 0 0 0 0 0 0 0 0 0 0 0 0 0 0 0 0 0 0 0 0 0 0 0 0 0 0 0 0 0 0 0 0 0 0 0 0 0 0 0 0 0 0 0 0 0 0 0 0 0 0 0 0 0 0 0 0 0 0 0 0 0 0 0 0 0 0 0 0 0 0 0 0 0 0 0 0 0 0 0 0 0 0 0 0 0 0 0 0 0 0 0 0 0 0 0 0 0 0 0 0 0 0 0 0 0 0 0 0 0 0 0 0 0 0 0 0 0 0 0 0 0 0 0 0 0 0 0 0 0 0 0 0 0 0 0 0 0 0 0 0 0 0 0 0 0 0 0 0 0 0 0 0 0 0 0 0 0 0 0 0 0 0 0 0 0 0 0 0 0 0 0 0 0 0 0 0 0 0 0 0 0 0 0 0 0 0 0 0 0 0 0 0 0 0 0 0 0 0 0 0 0 0 0 0 0 0 0 0 0 0 0 0 0 0 0 0 0 0 0 0 0 0 0 0 0 0 0 0 0 0 0 0 0 0 0 0 0 0 0 0 0 0 0 0 0 0 0 0 0 0 0 0 0 0 0 0 0 0 0 0 0 0 0 0 0 0 0 0 0 0 0 0 0 0 0 0 0 0 0 0 0 0 0 0 0 0 0 0 0 0 0 0 0 0 0 0 0 0 0 0 0 0 0 0 0 0 0 0 0 0 0 0 0 0 0 0 0 0 0 0 0 0 0 0 0 0 0 0 0 0 0 0 0 0 0 0 0 0 0 0 0 0 0 0 0 0 0 0 0 0 0 0 0 0 0 0 0 0 0 0 0 0 0 0 0 0 0 0 0 0 0 0 0 0 0 0 0 0 0 0 0 0 0 0 0 0 0 0 0 0 0 0 0 0 0 0 0 0 0 0 0 0 0 0 1 2 4 8 14 9 1 0 0 0 0 0 0 0 0 0 0 0 0 0 0 0 0 0 0 0 0 0 0 0 1 0 0 0 0 0 0 0 0 0 0 0 0 0 0 0 0 0 0 0 0 0 0 0 0 0 0 0 0 0 0 0 0 0 0 0 0 0 0 0 0 0 0 0 0 0 0 0 0 0 0 0 0 0 0 0 0 0 0 0 0 0 0 0 0 0 0 0 0 0 0 0 0 0 0 0 0 0 0 0 0 0 0 0 0 0 0 0 0 0 0 0 0 0 0 0 0 0 0 0 0 0 0 0 0 0 0 0 0 0 0 0 0 0 0 0 0 0 0 0 0 0 0 0 0 0 0 0 0 0 0 0 0 0 0 0 0 0 0 0 0 0 0 0 0 0 0 0 0 0 0 0 0 0 0 0 0 0 0 0 0 0 0 0 0 0 0 0 0 0 0 0 0 0 0 0 0 0 0 0 0 0 0 0 0 0 0 0 0 0 0 0 0 0 0 0 0 0 0 0 0 0 0 0 0 0 0 0 0 0 0 0 0 0 0 0 0 0 0 0 0 0 0 0 0 0 0 0 0 0 0 0 0 0 0 0 0 0 0 0 0 0 0 0 0 0 0 0 0 0 0 0 0 0 0 0 0 0 0 0 0 0 0 0 0 0 0 0 0 0 0 0 0 0 0 0 0 0 0 0 0 0 0 0 0 0 0 0 0 0 0 0 0 0 0 0 0 0 0 0 0 0 0 0 0 0 0 0 0 0 0 0 0 0 0 0 0 0 0 0 0 0 0 0 0 0 0 0 0 0 0 0 0 0 0 0 0 0 0 0 0 0 0 0 0 0 0 0 0 0 0 0 0 0 0 0 0 0 0 0 0 0 0 0 0 0 0 0 0 0 0 0 0 0 0 0 0 0 0 0 0 0 0 0 0 0 0 0 0 0 0 0 0 0 0 0 0 0 0 0 0 0 0 0 0 0 0 0 0 0 0 0 0 0 0 0 0 0 0 0 0 0 0 0 0 0 0 0 0 0 0 0 0 0 0 0 0 0 0 0 0 0 0 0 0 0 0 0 0 0 0 0 0 0 0 0 0 0 0 0 0 0 0 0 0 0 0 0 0 0 0 0 0 0 0 0 0 0 0 0 0 0 0 0 0 0 0 0 0 0 0 0 0 0 0 0 0 0 0 0 0 0 0 0 0 0 0 0 0 0 0 0 0 0 0 0 0 0 0 0 0 0 0 0 0 0 0 0 0 0 0 0 0 0 0 0 0 0 0 0 0 0 0 0 0 0 0 0 0 0 0 0 0 0 0 0 0 0 0 0 0 0 0 0 0 0 0 0 0 0 0 0 0 0 0 0 0 0 0 0 0 0 0 0 0 0 0 0 0 0 0 0 0 0 0 0 0 0 0 0 0 0 0 0 0 0 0 0 0 0 0 0 0 0 0 0 0 0 0 0 0 0 0 0 0 0 0 0 0 0 0 0 0 0 0 0 0 0 0 0 0 0 0 0 0 1 6 11 15 25 30 18 2 0 0 0 0 0 0 0 0 0 0 0 0 0 0 0 0 0 0 0 0 1 1 1 2 1 0 0 0 0 0 0 0 0 0 0 0 0 0 0 0 0 0 0 0 0 0 0 0 0 0 0 0 0 0 0 0 0 0 0 0 0 0 0 0 0 0 0 0 0 0 0 0 0 0 0 0 0 0 0 0 0 0 0 0 0 0 0 0 0 0 0 0 0 0 0 0 0 0 0 0 0 0 0 0 0 0 0 0 0 0 0 0 0 0 0 0 0 0 0 0 0 0 0 0 0 0 0 0 0 0 0 0 0 0 0 0 0 0 0 0 0 0 0 0 0 0 0 0 0 0 0 0 0 0 0 0 0 0 0 0 0 0 0 0 0 0 0 0 0 0 0 0 0 0 0 0 0 0 0 0 0 0 0 0 0 0 0 0 0 0 0 0 0 0 0 0 0 0 0 0 0 0 0 0 0 0 0 0 0 0 0 0 0 0 0 0 0 0 0 0 0 0 0 0 0 0 0 0 0 0 0 0 0 0 0 0 0 0 0 0 0 0 0 0 0 0 0 0 0 0 0 0 0 0 0 0 0 0 0 0 0 0 0 0 0 0 0 0 0 0 0 0 0 0 0 0 0 0 0 0 0 0 0 0 0 0 0 0 0 0 0 0 0 0 0 0 0 0 0 0 0 0 0 0 0 0 0 0 0 0 0 0 0 0 0 0 0 0 0 0 0 0 0 0 0 0 0 0 0 0 0 0 0 0 0 0 0 0 0 0 0 0 0 0 0 0 0 0 0 0 0 0 0 0 0 0 0 0 0 0 0 0 0 0 0 0 0 0 0 0 0 0 0 0 0 0 0 0 0 0 0 0 0 0 0 0 0 0 0 0 0 0 0 0 0 0 0 0 0 0 0 0 0 0 0 0 0 0 0 0 0 0 0 0 0 0 0 0 0 0 0 0 0 0 0 0 0 0 0 0 0 0 0 0 0 0 0 0 0 0 0 0 0 0 0 0 0 0 0 0 0 0 0 0 0 0 0 0 0 0 0 0 0 0 0 0 0 0 0 0 0 0 0 0 0 0 0 0 0 0 0 0 0 0 0 0 0 0 0 0 0 0 0 0 0 0 0 0 0 0 0 0 0 0 0 0 0 0 0 0 0 0 0 0 0 0 0 0 0 0 0 0 0 0 0 0 0 0 0 0 0 0 0 0 0 0 0 0 0 0 0 0 0 0 0 0 0 0 0 0 0 0 0 0 0 0 0 0 0 0 0 0 0 0 0 0 0 0 0 0 0 0 0 0 0 0 0 0 0 0 0 0 0 0 0 0 0 0 0 0 0 0 0 0 0 0 0 0 0 0 0 0 0 0 0 0 0 0 0 0 0 0 0 0 0 0 0 0 0 0 0 0 0 0 0 0 0 0 0 0 0 0 0 0 0 0 0 0 0 0 0 0 0 0 0 0 0 0 0 0 0 0 0 0 0 0 0 0 0 0 0 0 0 0 0 0 0 0 2 14 22 30 57 64 31 3 0 0 0 0 0 0 0 0 0 0 0 0 0 0 0 0 0 0 0 3 3 2 2 2 1 0 0 0 0 0 0 0 0 0 0 0 0 0 0 0 0 0 0 0 0 0 0 0 0 0 0 0 0 0 0 0 0 0 0 0 0 0 0 0 0 0 0 0 0 0 0 0 0 0 0 0 0 0 0 0 0 0 0 0 0 0 0 0 0 0 0 0 0 0 0 0 0 0 0 0 0 0 0 0 0 0 0 0 0 0 0 0 0 0 0 0 0 0 0 0 0 0 0 0 0 0 0 0 0 0 0 0 0 0 0 0 0 0 0 0 0 0 0 0 0 0 0 0 0 0 0 0 0 0 0 0 0 0 0 0 0 0 0 0 0 0 0 0 0 0 0 0 0 0 0 0 0 0 0 0 0 0 0 0 0 0 0 0 0 0 0 0 0 0 0 0 0 0 0 0 0 0 0 0 0 0 0 0 0 0 0 0 0 0 0 0 0 0 0 0 0 0 0 0 0 0 0 0 0 0 0 0 0 0 0 0 0 0 0 0 0 0 0 0 0 0 0 0 0 0 0 0 0 0 0 0 0 0 0 0 0 0 0 0 0 0 0 0 0 0 0 0 0 0 0 0 0 0 0 0 0 0 0 0 0 0 0 0 0 0 0 0 0 0 0 0 0 0 0 0 0 0 0 0 0 0 0 0 0 0 0 0 0 0 0 0 0 0 0 0 0 0 0 0 0 0 0 0 0 0 0 0 0 0 0 0 0 0 0 0 0 0 0 0 0 0 0 0 0 0 0 0 0 0 0 0 0 0 0 0 0 0 0 0 0 0 0 0 0 0 0 0 0 0 0 0 0 0 0 0 0 0 0 0 0 0 0 0 0 0 0 0 0 0 0 0 0 0 0 0 0 0 0 0 0 0 0 0 0 0 0 0 0 0 0 0 0 0 0 0 0 0 0 0 0 0 0 0 0 0 0 0 0 0 0 0 0 0 0 0 0 0 0 0 0 0 0 0 0 0 0 0 0 0 0 0 0 0 0 0 0 0 0 0 0 0 0 0 0 0 0 0 0 0 0 0 0 0 0 0 0 0 0 0 0 0 0 0 0 0 0 0 0 0 0 0 0 0 0 0 0 0 0 0 0 0 0 0 0 0 0 0 0 0 0 0 0 0 0 0 0 0 0 0 0 0 0 0 0 0 0 0 0 0 0 0 0 0 0 0 0 0 0 0 0 0 0 0 0 0 0 0 0 0 0 0 0 0 0 0 0 0 0 0 0 0 0 0 0 0 0 0 0 0 0 0 0 0 0 0 0 0 0 0 0 0 0 0 0 0 0 0 0 0 0 0 0 0 0 0 0 0 0 0 0 0 0 0 0 0 0 0 0 0 0 0 0 0 0 0 0 0 0 0 0 0 0 0 0 0 0 0 0 0 0 0 0 0 0 0 0 0 0 0 0 0 0 0 0 0 0 0 0 0 0 0 0 0 0 0 0 0 0 0 0 0 1 3 6 19 26 32 71 76 30 2 0 0 0 0 0 0 0 0 0 0 0 0 0 0 0 0 0 1 2 5 5 2 3 2 0 0 0 0 0 0 0 0 0 0 0 0 0 0 0 0 0 0 0 0 0 0 0 0 0 0 0 0 0 0 0 0 0 0 0 0 0 0 0 0 0 0 0 0 0 0 0 0 0 0 0 0 0 0 0 0 0 0 0 0 0 0 0 0 0 0 0 0 0 0 0 0 0 0 0 0 0 0 0 0 0 0 0 0 0 0 0 0 0 0 0 0 0 0 0 0 0 0 0 0 0 0 0 0 0 0 0 0 0 0 0 0 0 0 0 0 0 0 0 0 0 0 0 0 0 0 0 0 0 0 0 0 0 0 0 0 0 0 0 0 0 0 0 0 0 0 0 0 0 0 0 0 0 0 0 0 0 0 0 0 0 0 0 0 0 0 0 0 0 0 0 0 0 0 0 0 0 0 0 0 0 0 0 0 0 0 0 0 0 0 0 0 0 0 0 0 0 0 0 0 0 0 0 0 0 0 0 0 0 0 0 0 0 0 0 0 0 0 0 0 0 0 0 0 0 0 0 0 0 0 0 0 0 0 0 0 0 0 0 0 0 0 0 0 0 0 0 0 0 0 0 0 0 0 0 0 0 0 0 0 0 0 0 0 0 0 0 0 0 0 0 0 0 0 0 0 0 0 0 0 0 0 0 0 0 0 0 0 0 0 0 0 0 0 0 0 0 0 0 0 0 0 0 0 0 0 0 0 0 0 0 0 0 0 0 0 0 0 0 0 0 0 0 0 0 0 0 0 0 0 0 0 0 0 0 0 0 0 0 0 0 0 0 0 0 0 0 0 0 0 0 0 0 0 0 0 0 0 0 0 0 0 0 0 0 0 0 0 0 0 0 0 0 0 0 0 0 0 0 0 0 0 0 0 0 0 0 0 0 0 0 0 0 0 0 0 0 0 0 0 0 0 0 0 0 0 0 0 0 0 0 0 0 0 0 0 0 0 0 0 0 0 0 0 0 0 0 0 0 0 0 0 0 0 0 0 0 0 0 0 0 0 0 0 0 0 0 0 0 0 0 0 0 0 0 0 0 0 0 0 0 0 0 0 0 0 0 0 0 0 0 0 0 0 0 0 0 0 0 0 0 0 0 0 0 0 0 0 0 0 0 0 0 0 0 0 0 0 0 0 0 0 0 0 0 0 0 0 0 0 0 0 0 0 0 0 0 0 0 0 0 0 0 0 0 0 0 0 0 0 0 0 0 0 0 0 0 0 0 0 0 0 0 0 0 0 0 0 0 0 0 0 0 0 0 0 0 0 0 0 0 0 0 0 0 0 0 0 0 0 0 0 0 0 0 0 0 0 0 0 0 0 0 0 0 0 0 0 0 0 0 0 0 0 0 0 0 0 0 0 0 0 0 0 0 0 0 0 0 0 0 0 0 0 0 0 0 0 0 0 0 0 0 0 0 0 0 0 0 0 0 0 0 0 0 0 0 0 0 0 0 0 5 10 14 26 30 24 46 45 13 1 0 0 0 0 0 0 0 0 0 0 0 0 0 0 0 0 2 3 4 5 5 2 2 1 0 0 0 0 0 0 0 0 0 0 0 0 0 0 0 0 0 0 0 1 1 0 0 0 0 0 0 0 0 0 0 0 0 0 0 0 0 0 0 0 0 0 0 0 0 0 0 0 0 0 0 0 0 0 0 0 0 0 0 0 0 0 0 0 0 0 0 0 0 0 0 0 0 0 0 0 0 0 0 0 0 0 0 0 0 0 0 0 0 0 0 0 0 0 0 0 0 0 0 0 0 0 0 0 0 0 0 0 0 0 0 0 0 0 0 0 0 0 0 0 0 0 0 0 0 0 0 0 0 0 0 0 0 0 0 0 0 0 0 0 0 0 0 0 0 0 0 0 0 0 0 0 0 0 0 0 0 0 0 0 0 0 0 0 0 0 0 0 0 0 0 0 0 0 0 0 0 0 0 0 0 0 0 0 0 0 0 0 0 0 0 0 0 0 0 0 0 0 0 0 0 0 0 0 0 0 0 0 0 0 0 0 0 0 0 0 0 0 0 0 0 0 0 0 0 0 0 0 0 0 0 0 0 0 0 0 0 0 0 0 0 0 0 0 0 0 0 0 0 0 0 0 0 0 0 0 0 0 0 0 0 0 0 0 0 0 0 0 0 0 0 0 0 0 0 0 0 0 0 0 0 0 0 0 0 0 0 0 0 0 0 0 0 0 0 0 0 0 0 0 0 0 0 0 0 0 0 0 0 0 0 0 0 0 0 0 0 0 0 0 0 0 0 0 0 0 0 0 0 0 0 0 0 0 0 0 0 0 0 0 0 0 0 0 0 0 0 0 0 0 0 0 0 0 0 0 0 0 0 0 0 0 0 0 0 0 0 0 0 0 0 0 0 0 0 0 0 0 0 0 0 0 0 0 0 0 0 0 0 0 0 0 0 0 0 0 0 0 0 0 0 0 0 0 0 0 0 0 0 0 0 0 0 0 0 0 0 0 0 0 0 0 0 0 0 0 0 0 0 0 0 0 0 0 0 0 0 0 0 0 0 0 0 0 0 0 0 0 0 0 0 0 0 0 0 0 0 0 0 0 0 0 0 0 0 0 0 0 0 0 0 0 0 0 0 0 0 0 0 0 0 0 0 0 0 0 0 0 0 0 0 0 0 0 0 0 0 0 0 0 0 0 0 0 0 0 0 0 0 0 0 0 0 0 0 0 0 0 0 0 0 0 0 0 0 0 0 0 0 0 0 0 0 0 0 0 0 0 0 0 0 0 0 0 0 0 0 0 0 0 0 0 0 0 0 0 0 0 0 0 0 0 0 0 0 0 0 0 0 0 0 0 0 0 0 0 0 0 0 0 0 0 0 0 0 0 0 0 0 0 0 0 0 0 0 0 0 0 0 0 0 0 0 0 0 0 0 0 0 0 0 0 0 0 0 0 0 0 0 0 0 0 0 0 0 0 0 0 0 0 0 0 0 0 0 0 0 0 0 0 0 0 37 44 33 41 37 20 22 25 12 2 0 0 0 0 0 0 0 0 0 0 0 0 0 0 0 0 27 27 13 8 7 3 1 1 1 0 0 0 0 0 0 0 0 0 0 0 0 0 0 0 0 0 2 3 1 1 0 0 0 0 0 0 0 0 0 0 0 0 0 0 0 0 0 0 0 0 0 0 0 0 0 0 0 0 0 0 0 0 0 0 0 0 0 0 0 0 0 0 0 0 0 0 0 0 0 0 0 0 0 0 0 0 0 0 0 0 0 0 0 0 0 0 0 0 0 0 0 0 0 0 0 0 0 0 0 0 0 0 0 0 0 0 0 0 0 0 0 0 0 0 0 0 0 0 0 0 0 0 0 0 0 0 0 0 0 0 0 0 0 0 0 0 0 0 0 0 0 0 0 0 0 0 0 0 0 0 0 0 0 0 0 0 0 0 0 0 0 0 0 0 0 0 0 0 0 0 0 0 0 0 0 0 0 0 0 0 0 0 0 0 0 0 0 0 0 0 0 0 0 0 0 0 0 0 0 0 0 0 0 0 0 0 0 0 0 0 0 0 0 0 0 0 0 0 0 0 0 0 0 0 0 0 0 0 0 0 0 0 0 0 0 0 0 0 0 0 0 0 0 0 0 0 0 0 0 0 0 0 0 0 0 0 0 0 0 0 0 0 0 0 0 0 0 0 0 0 0 0 0 0 0 0 0 0 0 0 0 0 0 0 0 0 0 0 0 0 0 0 0 0 0 0 0 0 0 0 0 0 0 0 0 0 0 0 0 0 0 0 0 0 0 0 0 0 0 0 0 0 0 0 0 0 0 0 0 0 0 0 0 0 0 0 0 0 0 0 0 0 0 0 0 0 0 0 0 0 0 0 0 0 0 0 0 0 0 0 0 0 0 0 0 0 0 0 0 0 0 0 0 0 0 0 0 0 0 0 0 0 0 0 0 0 0 0 0 0 0 0 0 0 0 0 0 0 0 0 0 0 0 0 0 0 0 0 0 0 0 0 0 0 0 0 0 0 0 0 0 0 0 0 0 0 0 0 0 0 0 0 0 0 0 0 0 0 0 0 0 0 0 0 0 0 0 0 0 0 0 0 0 0 0 0 0 0 0 0 0 0 0 0 0 0 0 0 0 0 0 0 0 0 0 0 0 0 0 0 0 0 0 0 0 0 0 0 0 0 0 0 0 0 0 0 0 0 0 0 0 0 0 0 0 0 0 0 0 0 0 0 0 0 0 0 0 0 0 0 0 0 0 0 0 0 0 0 0 0 0 0 0 0 0 0 0 0 0 0 0 0 0 0 0 0 0 0 0 0 0 0 0 0 0 0 0 0 0 0 0 0 0 0 0 0 0 0 0 0 0 0 0 0 0 0 0 0 0 0 0 0 0 0 0 0 0 0 0 0 0 0 0 0 0 0 0 0 0 0 0 0 0 0 0 0 0 0 0 0 0 0 0 0 0 0 0 0 0 0 0 0 0 0 0 0 0 0 0 0 0 0 0 0 0 0 0 0 0 0 95 103 69 52 31 15 19 32 28 14 5 0 0 0 0 0 0 0 0 0 0 0 0 0 0 0 87 83 33 10 6 3 2 2 2 1 0 0 0 0 0 0 0 0 0 0 0 0 0 0 0 0 17 19 4 1 0 0 0 0 0 0 0 0 0 0 0 0 0 0 0 0 0 0 0 0 0 0 1 1 0 0 0 0 0 0 0 0 0 0 0 0 0 0 0 0 0 0 0 0 0 0 0 0 0 0 0 0 0 0 0 0 0 0 0 0 0 0 0 0 0 0 0 0 0 0 0 0 0 0 0 0 0 0 0 0 0 0 0 0 0 0 0 0 0 0 0 0 0 0 0 0 0 0 0 0 0 0 0 0 0 0 0 0 0 0 0 0 0 0 0 0 0 0 0 0 0 0 0 0 0 0 0 0 0 0 0 0 0 0 0 0 0 0 0 0 0 0 0 0 0 0 0 0 0 0 0 0 0 0 0 0 0 0 0 0 0 0 0 0 0 0 0 0 0 0 0 0 0 0 0 0 0 0 0 0 0 0 0 0 0 0 0 0 0 0 0 0 0 0 0 0 0 0 0 0 0 0 0 0 0 0 0 0 0 0 0 0 0 0 0 0 0 0 0 0 0 0 0 0 0 0 0 0 0 0 0 0 0 0 0 0 0 0 0 0 0 0 0 0 0 0 0 0 0 0 0 0 0 0 0 0 0 0 0 0 0 0 0 0 0 0 0 0 0 0 0 0 0 0 0 0 0 0 0 0 0 0 0 0 0 0 0 0 0 0 0 0 0 0 0 0 0 0 0 0 0 0 0 0 0 0 0 0 0 0 0 0 0 0 0 0 0 0 0 0 0 0 0 0 0 0 0 0 0 0 0 0 0 0 0 0 0 0 0 0 0 0 0 0 0 0 0 0 0 0 0 0 0 0 0 0 0 0 0 0 0 0 0 0 0 0 0 0 0 0 0 0 0 0 0 0 0 0 0 0 0 0 0 0 0 0 0 0 0 0 0 0 0 0 0 0 0 0 0 0 0 0 0 0 0 0 0 0 0 0 0 0 0 0 0 0 0 0 0 0 0 0 0 0 0 0 0 0 0 0 0 0 0 0 0 0 0 0 0 0 0 0 0 0 0 0 0 0 0 0 0 0 0 0 0 0 0 0 0 0 0 0 0 0 0 0 0 0 0 0 0 0 0 0 0 0 0 0 0 0 0 0 0 0 0 0 0 0 0 0 0 0 0 0 0 0 0 0 0 0 0 0 0 0 0 0 0 0 0 0 0 0 0 0 0 0 0 0 0 0 0 0 0 0 0 0 0 0 0 0 0 0 0 0 0 0 0 0 0 0 0 0 0 0 0 0 0 0 0 0 0 0 0 0 0 0 0 0 0 0 0 0 0 0 0 0 0 0 0 0 0 0 0 0 0 0 0 0 0 0 0 0 0 0 0 0 0 0 0 0 0 0 0 0 0 0 0 0 0 0 0 0 0 0 0 0 0 0 0 0 0 0 0 0 0 0 0 0 0 0 136 137 89 55 21 11 19 34 34 19 7 0 0 0 0 0 0 0 0 0 0 0 0 0 0 0 116 96 35 10 4 2 2 3 2 1 0 0 0 0 0 0 0 0 0 0 0 0 0 0 0 0 22 23 5 1 0 0 0 0 0 0 0 0 0 0 0 0 0 0 0 0 0 0 0 0 0 0 1 1 0 0 0 0 0 0 0 0 0 0 0 0 0 0 0 0 0 0 0 0 0 0 0 0 0 0 0 0 0 0 0 0 0 0 0 0 0 0 0 0 0 0 0 0 0 0 0 0 0 0 0 0 0 0 0 0 0 0 0 0 0 0 0 0 0 0 0 0 0 0 0 0 0 0 0 0 0 0 0 0 0 0 0 0 0 0 0 0 0 0 0 0 0 0 0 0 0 0 0 0 0 0 0 0 0 0 0 0 0 0 0 0 0 0 0 0 0 0 0 0 0 0 0 0 0 0 0 0 0 0 0 0 0 0 0 0 0 0 0 0 0 0 0 0 0 0 0 0 0 0 0 0 0 0 0 0 0 0 0 0 0 0 0 0 0 0 0 0 0 0 0 0 0 0 0 0 0 0 0 0 0 0 0 0 0 0 0 0 0 0 0 0 0 0 0 0 0 0 0 0 0 0 0 0 0 0 0 0 0 0 0 0 0 0 0 0 0 0 0 0 0 0 0 0 0 0 0 0 0 0 0 0 0 0 0 0 0 0 0 0 0 0 0 0 0 0 0 0 0 0 0 0 0 0 0 0 0 0 0 0 0 0 0 0 0 0 0 0 0 0 0 0 0 0 0 0 0 0 0 0 0 0 0 0 0 0 0 0 0 0 0 0 0 0 0 0 0 0 0 0 0 0 0 0 0 0 0 0 0 0 0 0 0 0 0 0 0 0 0 0 0 0 0 0 0 0 0 0 0 0 0 0 0 0 0 0 0 0 0 0 0 0 0 0 0 0 0 0 0 0 0 0 0 0 0 0 0 0 0 0 0 0 0 0 0 0 0 0 0 0 0 0 0 0 0 0 0 0 0 0 0 0 0 0 0 0 0 0 0 0 0 0 0 0 0 0 0 0 0 0 0 0 0 0 0 0 0 0 0 0 0 0 0 0 0 0 0 0 0 0 0 0 0 0 0 0 0 0 0 0 0 0 0 0 0 0 0 0 0 0 0 0 0 0 0 0 0 0 0 0 0 0 0 0 0 0 0 0 0 0 0 0 0 0 0 0 0 0 0 0 0 0 0 0 0 0 0 0 0 0 0 0 0 0 0 0 0 0 0 0 0 0 0 0 0 0 0 0 0 0 0 0 0 0 0 0 0 0 0 0 0 0 0 0 0 0 0 0 0 0 0 0 0 0 0 0 0 0 0 0 0 0 0 0 0 0 0 0 0 0 0 0 0 0 0 0 0 0 0 0 0 0 0 0 0 0 0 0 0 0 0 0 0 0 0 0 0 0 0 0 0 0 0 0 0 0 0 0 0 0 0 0 0 0 0 0 0 0 0 0 0 0 0 0 0 0 154 166 112 59 18 10 16 23 22 12 4 2 1 0 0 0 0 0 0 0 0 0 0 0 0 0 101 75 35 14 4 2 2 3 3 2 1 1 1 0 0 0 0 0 0 0 0 0 0 0 0 0 12 14 8 3 1 0 0 0 0 0 0 0 0 0 0 0 0 0 0 0 1 0 0 0 0 0 3 2 1 0 0 0 0 0 0 0 0 0 0 0 0 0 0 0 0 0 1 1 0 0 0 0 1 0 0 0 0 0 0 0 0 0 0 0 0 0 0 0 0 0 0 1 1 1 0 0 0 0 1 0 0 0 0 0 0 0 0 0 0 0 0 0 0 0 0 0 0 0 1 1 0 0 0 0 0 0 0 0 0 0 0 0 0 0 0 0 0 0 0 0 0 0 0 0 0 0 0 0 0 0 0 0 0 0 0 1 0 0 0 0 0 0 0 0 0 0 0 0 0 0 0 0 0 0 0 0 0 0 0 0 1 1 0 0 0 0 0 0 0 0 0 0 0 0 0 0 0 0 0 0 0 0 0 0 0 0 1 1 0 0 0 0 0 0 0 0 0 0 0 0 0 0 0 0 0 0 0 0 0 0 0 0 0 0 0 0 0 0 0 0 0 0 0 0 0 0 0 0 0 0 0 0 0 0 1 1 0 0 0 0 0 0 0 0 0 0 0 0 0 0 0 0 0 0 0 0 0 0 0 0 1 1 0 0 0 0 0 0 0 1 1 0 0 0 0 0 0 0 0 0 0 0 0 0 0 0 1 1 0 0 1 0 0 0 1 1 1 1 0 0 0 0 0 0 0 0 0 0 0 0 0 0 1 1 0 1 1 1 1 0 1 1 1 1 0 0 0 0 0 0 0 0 0 0 0 0 0 0 0 0 0 1 1 1 1 1 0 1 1 1 0 0 0 0 0 0 0 0 0 0 0 0 0 0 0 0 1 1 1 1 1 1 0 0 0 0 0 0 0 0 0 0 0 0 0 0 0 0 0 0 0 0 1 1 1 1 1 1 0 0 0 0 0 0 0 0 0 0 0 0 0 0 0 0 0 0 0 0 1 1 1 1 1 1 0 0 0 0 0 0 0 0 0 0 0 0 0 0 0 0 0 0 0 0 1 1 1 1 1 1 0 0 0 0 0 0 0 0 0 0 0 0 0 0 0 0 0 0 0 0 0 1 1 1 1 1 0 0 0 0 0 0 0 0 0 0 0 0 0 0 0 0 0 0 0 0 0 1 1 1 1 1 0 0 0 0 1 0 0 0 0 0 0 0 0 0 0 0 0 0 0 0 0 0 0 0 1 0 0 0 0 0 0 0 0 0 0 0 0 0 0 0 0 0 0 0 0 0 0 0 0 0 0 0 0 0 0 0 0 0 0 0 0 0 0 0 0 0 0 0 0 0 0 0 0 0 0 0 0 0 0 0 0 0 0 0 0 0 0 0 0 0 0 0 0 0 0 0 0 0 0 0 0 0 0 0 0 0 0 0 0 0 0 0 0 0 0 0 0 0 0 0 0 0 165 205 167 96 41 19 17 16 20 17 8 4 3 1 1 1 1 1 1 1 1 2 2 1 1 0 90 112 83 32 11 11 9 4 4 4 2 2 2 1 1 1 1 1 1 1 1 2 2 2 1 0 23 34 25 8 5 7 6 2 1 0 1 1 1 1 1 1 1 1 1 1 2 2 2 2 1 0 15 13 6 3 4 5 4 1 1 0 0 1 1 1 0 0 1 1 1 2 2 3 2 2 1 0 6 3 1 2 3 4 3 1 1 0 0 0 0 0 0 0 0 1 1 2 3 3 3 2 1 0 4 2 1 2 3 3 3 2 1 0 0 0 0 0 0 0 0 1 1 1 2 3 3 2 1 0 5 4 1 2 4 4 4 3 2 1 0 0 0 0 0 0 0 1 1 1 1 2 2 2 1 0 8 6 2 3 4 5 5 4 2 1 0 0 0 0 0 0 0 0 0 1 1 2 2 1 1 0 8 6 2 4 6 7 6 4 2 1 1 0 0 0 0 0 0 0 0 0 1 2 2 1 1 0 8 6 3 4 7 7 5 4 2 1 1 1 0 0 1 1 0 0 0 1 1 2 2 2 1 0 9 6 4 4 5 5 4 3 2 2 2 1 1 1 1 1 1 0 0 1 1 2 2 2 1 0 10 6 4 4 5 4 3 3 3 4 5 4 2 1 1 1 1 1 1 1 2 2 3 2 1 0 12 6 4 5 6 5 4 4 5 9 12 9 5 2 1 1 1 1 1 1 2 3 3 2 1 0 11 7 5 6 8 8 6 5 9 17 23 20 11 3 1 1 1 1 1 1 2 3 3 2 1 0 9 7 6 8 12 13 9 7 12 24 34 30 15 4 1 1 1 1 1 1 2 2 2 1 1 0 8 8 7 8 14 15 10 7 11 25 34 27 11 2 1 1 1 1 1 1 1 2 2 1 1 0 7 9 8 7 10 11 8 6 7 15 19 12 4 1 1 1 1 1 1 1 1 1 1 1 1 0 4 6 7 6 6 7 6 5 4 5 5 3 1 1 1 1 1 1 1 1 1 1 1 1 1 0 3 4 4 5 5 6 5 4 3 3 2 1 1 1 1 1 1 1 1 1 1 1 1 1 1 0 3 3 4 4 5 5 5 4 3 2 2 2 1 1 1 1 1 1 1 1 1 1 1 1 0 0 2 2 3 3 4 5 5 5 4 3 3 2 2 2 2 2 1 1 1 1 1 1 1 1 0 0 2 1 2 3 4 5 6 7 6 4 3 3 3 3 3 2 2 2 1 1 1 1 1 1 0 0 1 1 1 2 3 5 7 8 6 3 3 2 2 2 2 2 2 2 2 1 1 1 1 1 0 0 1 1 1 1 2 6 9 7 3 1 1 1 1 1 1 2 2 2 1 1 1 1 1 0 0 0 0 0 0 1 1 3 5 4 1 1 0 0 0 1 1 1 1 1 1 1 1 1 0 0 0 0 0 0 0 0 0 0 0 0 0 0 0 0 0 0 0 0 0 0 0 0 0 0 0 0 0 0 183 221 185 123 98 78 54 30 29 25 13 10 10 10 10 10 10 8 5 4 4 6 7 9 10 8 127 155 114 62 66 71 48 19 10 7 7 10 11 10 10 10 9 7 5 4 5 6 7 9 11 11 56 65 52 43 54 63 52 26 9 4 6 10 11 11 9 8 7 5 5 5 6 7 8 10 12 12 41 34 27 34 48 60 58 33 11 4 6 9 11 9 7 5 4 4 5 6 8 9 10 12 13 12 20 16 18 33 47 59 56 32 13 5 5 7 7 6 4 3 4 5 6 7 8 10 12 13 13 12 14 12 17 31 45 49 44 30 13 4 3 4 4 3 2 3 4 6 6 7 8 10 12 13 13 11 20 18 18 27 37 36 34 28 13 4 3 3 3 3 3 4 6 7 6 6 7 10 12 13 12 11 33 27 21 24 28 29 29 24 12 6 5 5 4 4 5 6 8 7 6 5 7 10 12 13 12 11 47 35 25 25 29 31 29 21 11 6 6 5 5 5 7 9 8 6 5 5 8 11 13 13 12 11 60 43 28 26 30 33 29 21 12 6 6 7 7 8 10 11 9 6 5 6 10 13 15 14 13 11 71 49 31 27 27 28 28 24 15 9 11 12 12 12 13 12 9 7 6 8 11 15 16 15 13 11 77 51 33 31 26 22 25 26 18 17 23 26 24 22 18 14 10 8 8 10 13 16 17 15 14 12 81 51 38 40 32 24 24 26 29 35 42 47 45 36 25 16 11 9 9 12 15 18 19 17 15 14 79 53 39 46 42 36 32 32 47 60 67 71 62 43 23 13 10 9 11 14 17 18 19 17 15 14 69 54 37 45 54 56 46 43 62 81 91 88 67 35 14 8 8 10 13 15 17 18 17 15 13 11 59 55 38 41 59 64 50 52 70 90 99 86 52 19 8 7 8 11 13 14 15 16 15 13 11 9 46 52 42 35 49 54 46 54 64 74 77 57 25 9 7 7 8 10 12 12 12 13 12 12 11 9 27 36 36 31 36 39 39 44 45 41 36 22 10 7 7 7 8 10 10 10 10 11 12 13 11 8 19 23 27 31 35 37 33 31 29 19 11 8 7 8 8 9 10 10 10 9 9 11 11 12 9 6 19 20 23 29 40 43 31 24 22 14 8 7 8 9 10 11 11 11 10 10 10 11 11 10 7 4 16 15 17 23 39 43 28 21 20 14 10 9 10 12 13 12 12 12 11 10 10 10 9 9 6 3 10 9 12 18 31 33 24 24 25 21 16 13 13 14 15 14 14 13 12 11 10 10 8 7 5 3 8 8 11 16 24 27 29 32 30 23 18 15 13 13 14 15 15 14 13 12 10 9 7 5 3 2 7 8 11 15 21 30 38 36 26 21 18 13 10 11 14 17 17 15 13 12 10 8 6 4 3 2 6 7 9 11 14 22 30 25 18 18 16 9 7 9 15 20 18 13 11 9 8 6 4 3 2 1 2 5 7 9 8 12 18 14 12 16 12 6 3 4 8 16 16 8 4 3 4 3 2 2 2 1 188 212 163 129 149 154 132 100 66 37 31 46 54 43 32 29 26 21 17 15 18 26 31 37 39 28 155 161 115 101 142 156 129 87 41 20 30 50 55 44 31 26 23 20 17 17 19 26 31 38 43 41 94 98 96 111 148 161 138 95 47 26 35 50 54 42 28 21 20 19 20 21 24 30 35 43 47 36 79 85 106 131 160 173 157 118 69 41 42 51 48 33 21 16 18 21 24 27 30 36 41 50 51 28 60 86 118 149 173 182 170 133 81 44 37 38 30 19 13 14 19 26 29 31 35 42 46 55 54 28 51 85 123 157 178 182 170 136 78 33 22 19 16 13 12 16 24 31 33 34 39 47 52 60 57 29 57 85 125 158 175 175 163 129 67 25 19 20 20 18 18 23 31 35 34 35 41 52 58 65 60 41 73 92 124 153 165 158 140 103 55 35 34 33 29 25 25 32 37 36 33 34 43 58 66 70 64 53 94 94 109 129 143 136 110 75 53 48 44 39 32 29 33 39 41 37 34 37 48 65 73 76 67 55 120 103 97 102 114 122 103 73 61 47 38 36 35 36 41 45 44 40 38 44 55 73 81 81 70 57 135 115 102 100 96 105 100 81 66 44 38 44 45 46 50 53 49 46 46 52 62 76 82 81 70 56 140 118 108 107 91 81 86 82 65 52 59 63 62 62 63 62 56 53 53 58 66 77 80 77 66 51 146 121 113 113 94 73 76 78 67 70 80 82 83 83 75 66 58 56 55 59 66 73 75 70 59 46 150 126 116 119 105 89 85 80 81 91 95 99 100 93 72 58 51 49 51 57 63 66 66 59 51 42 147 128 112 120 122 119 105 95 104 115 116 116 104 79 51 41 40 43 47 53 57 57 56 50 43 37 137 127 108 116 131 132 118 114 125 134 133 121 88 50 32 29 33 41 46 49 50 49 48 46 41 37 118 121 104 109 124 123 118 127 134 132 123 96 54 31 27 27 32 40 45 45 45 44 45 45 43 39 88 100 93 103 113 109 115 127 123 105 82 52 31 28 26 28 34 40 43 43 42 43 45 48 45 39 62 77 82 100 110 108 113 114 102 73 42 28 27 29 30 34 38 41 44 44 43 46 46 47 41 27 57 68 75 91 110 118 112 97 83 59 34 24 28 34 39 42 44 45 46 47 47 50 49 46 37 22 55 57 61 77 106 121 102 79 71 55 38 31 34 42 47 47 47 48 50 51 52 53 48 42 33 24 46 43 49 63 92 103 81 70 73 64 51 43 43 47 50 51 52 53 54 55 57 57 50 40 28 18 42 40 48 56 71 79 75 79 79 70 58 50 46 46 50 55 56 56 56 57 57 55 46 36 24 15 46 45 51 54 59 73 84 85 76 67 61 53 43 41 49 56 58 58 59 60 58 53 43 32 20 12 45 42 42 44 47 61 72 70 63 60 53 39 31 35 48 59 60 58 56 54 53 48 39 27 17 10 30 28 19 22 30 46 55 53 52 51 34 13 11 25 43 56 48 41 36 33 34 28 28 18 10 4 178 204 180 179 195 198 189 172 137 103 98 122 143 139 113 86 78 74 68 60 57 63 69 79 88 69 171 174 154 165 195 203 193 168 117 88 98 128 146 138 109 83 74 68 62 57 56 62 68 78 90 92 148 151 152 170 200 211 200 172 121 96 109 134 145 130 100 77 67 61 58 57 59 65 71 82 93 89 147 153 168 185 208 219 209 183 142 117 124 138 136 113 85 65 57 56 58 61 65 71 77 87 96 85 144 165 186 201 216 223 216 192 154 126 124 125 111 86 63 50 51 56 62 66 71 79 84 94 100 87 135 168 196 211 222 226 219 195 152 116 106 97 79 59 46 44 52 61 66 71 78 87 94 102 105 90 125 163 199 217 226 227 219 191 135 94 82 73 62 50 45 49 58 66 71 75 84 95 102 109 111 102 128 162 198 218 228 227 216 180 117 86 77 70 62 53 51 57 66 72 74 78 88 102 111 117 118 115 143 164 188 210 224 223 209 170 119 96 83 74 64 58 59 66 72 75 77 82 94 110 119 124 126 124 166 171 178 197 216 219 204 167 127 99 81 73 69 68 72 78 81 81 83 89 101 117 126 132 134 132 179 176 180 196 206 209 194 157 128 101 86 85 85 85 90 95 94 92 93 99 109 123 131 137 140 136 181 177 183 196 192 183 170 144 126 110 106 104 101 104 109 111 109 107 107 111 120 130 136 143 142 134 181 177 182 186 171 149 144 135 121 117 119 111 109 115 118 118 116 116 116 120 126 134 139 142 135 123 183 176 175 174 158 141 137 131 119 120 119 113 114 119 115 112 111 112 115 119 124 128 132 132 119 102 181 172 167 168 163 155 147 137 129 129 127 123 117 111 101 97 98 102 106 109 111 113 115 111 94 78 177 167 161 168 170 165 157 149 146 145 138 129 111 95 86 84 86 92 95 96 95 94 94 88 78 69 169 164 155 164 171 166 163 163 160 152 138 118 94 82 79 77 79 85 89 89 87 84 83 80 76 73 153 157 147 160 169 165 169 172 164 144 119 95 80 78 75 74 77 82 86 88 86 84 83 83 81 77 130 146 139 151 164 165 173 173 157 129 97 80 77 76 75 76 79 83 88 89 88 87 86 87 82 72 116 135 131 138 155 167 173 165 148 119 89 75 75 78 80 82 84 86 90 93 93 94 93 91 83 70 108 119 118 125 148 168 167 154 139 115 91 79 78 82 86 86 87 89 94 98 100 102 98 93 79 66 102 105 109 116 140 160 154 144 138 120 100 89 86 87 89 91 93 96 100 104 108 111 105 94 73 55 100 102 108 111 125 141 143 143 139 126 110 99 93 91 93 96 98 101 104 109 114 115 107 92 67 50 105 107 112 111 114 128 139 144 139 130 121 112 101 95 96 100 102 105 111 118 121 118 106 87 62 44 108 107 106 105 106 118 130 136 134 128 118 106 97 93 98 104 106 110 114 120 121 115 101 78 54 38 86 98 88 87 93 109 120 128 127 120 103 85 80 86 98 104 100 102 106 108 109 102 90 65 43 23 114 147 141 144 152 149 143 131 108 87 83 98 118 121 98 72 65 63 58 50 45 46 48 56 65 52 119 125 118 132 151 155 150 132 96 77 81 102 121 118 94 70 62 58 52 45 43 44 47 53 64 69 113 114 113 126 151 163 159 136 97 80 90 110 121 111 87 66 56 49 45 43 43 44 47 53 64 71 117 116 119 129 152 168 162 139 107 93 101 114 114 98 75 56 46 41 41 42 44 47 50 55 66 73 120 126 134 140 156 170 162 140 115 102 105 106 97 77 55 41 36 38 41 44 47 51 54 58 68 75 111 130 148 154 163 173 164 141 114 98 94 86 70 51 37 32 34 38 43 48 52 56 60 63 71 77 99 125 152 165 175 179 169 139 100 79 70 60 48 36 31 32 36 42 47 52 56 61 65 68 75 81 96 123 152 172 187 189 177 139 87 63 53 46 40 35 33 35 40 46 51 54 59 65 69 73 80 86 106 128 148 172 192 195 181 143 90 63 52 45 41 37 37 39 44 50 53 56 62 68 73 78 88 95 123 135 144 168 191 194 178 140 94 68 56 49 45 44 45 48 51 54 56 59 65 71 76 83 96 104 134 137 144 168 184 184 165 124 93 73 63 59 57 58 60 62 62 62 62 65 71 77 82 91 104 109 135 136 145 164 166 158 138 107 92 82 75 72 70 72 74 75 75 74 73 75 81 87 92 102 110 110 133 134 141 149 137 119 109 98 91 86 82 76 74 76 79 81 82 83 84 87 91 95 101 109 108 102 128 128 129 127 114 100 98 95 87 84 80 74 72 75 77 78 81 84 87 89 92 95 100 105 94 81 124 119 118 117 110 102 99 94 87 84 80 76 73 72 72 73 75 78 80 80 81 84 87 86 71 57 121 114 113 117 114 107 103 98 93 89 84 78 72 69 67 67 67 69 70 68 67 67 67 62 52 46 120 113 109 116 119 114 110 106 101 94 85 75 68 65 63 61 60 61 62 61 60 58 55 52 49 48 114 114 106 112 120 119 120 117 107 94 80 69 63 61 59 56 56 57 60 61 60 57 55 53 53 52 101 111 100 103 114 119 125 123 109 89 73 65 61 59 57 55 55 57 60 62 61 59 57 57 56 55 87 102 93 92 104 116 125 122 108 86 69 61 58 57 56 55 56 58 61 63 63 63 62 63 59 55 78 88 86 85 97 115 123 119 106 85 68 60 57 57 57 57 58 60 63 66 67 69 68 67 57 50 74 80 81 82 94 114 118 114 104 86 71 63 60 59 59 60 61 63 66 70 73 76 75 69 54 43 75 78 81 81 90 105 111 109 104 92 79 71 66 63 63 63 65 67 70 75 80 83 79 69 51 39 77 80 84 83 85 95 103 107 106 99 91 84 77 71 68 69 70 72 77 83 88 87 80 66 47 35 81 82 83 81 81 88 98 105 105 100 93 86 79 74 72 73 74 77 82 89 91 87 76 59 41 31 65 81 79 77 78 86 96 103 102 97 88 80 75 71 72 74 75 79 84 89 90 85 71 52 36 21 0 0 0 0 0 0 0 0 0 0 0 0 0 0 0 0 0 0 0 0 0 0 0 0 0 0 0 0 0 0 0 0 0 0 0 0 0 0 0 0 0 0 0 0 0 0 0 0 0 0 0 0 0 0 0 0 0 0 0 0 0 0 0 0 0 0 0 0 0 0 0 0 0 0 0 0 0 0 0 0 0 0 0 0 0 0 0 0 0 0 0 0 0 0 0 0 0 0 0 0 0 0 0 0 0 0 0 0 0 0 0 0 0 0 0 0 0 0 0 0 0 0 0 0 0 0 0 0 0 0 0 0 0 0 0 0 0 0 0 0 0 0 0 0 0 0 0 0 0 0 0 0 0 0 0 0 0 0 0 0 0 0 0 0 0 0 0 0 0 0 0 0 0 0 0 0 0 0 0 0 0 0 0 0 0 0 0 0 0 0 0 0 0 0 0 0 0 0 0 0 0 0 0 0 0 0 0 0 0 0 0 0 0 0 0 0 0 0 0 0 0 0 0 0 0 0 0 0 0 0 0 0 0 0 0 0 0 0 0 0 0 0 0 0 0 0 0 0 0 0 0 0 0 0 0 0 0 0 0 0 0 0 0 0 0 0 0 0 0 0 0 0 0 0 0 0 0 0 0 0 0 0 0 0 0 0 0 0 0 0 0 0 0 0 0 0 0 0 0 0 0 0 0 0 0 0 0 0 0 0 0 0 0 0 0 0 0 0 0 0 0 0 0 0 0 0 0 0 0 0 0 0 0 0 0 0 0 0 0 0 0 0 0 0 0 0 0 0 0 0 0 0 0 0 0 0 0 0 0 0 0 0 0 0 0 0 0 0 0 0 0 0 0 0 0 0 0 0 0 0 0 0 0 0 0 0 0 0 0 0 0 0 0 0 0 0 0 0 0 0 0 0 0 0 0 0 0 0 0 0 0 0 0 0 0 0 0 0 0 0 0 0 0 0 0 0 0 0 0 0 0 0 0 0 0 0 0 0 0 0 0 0 0 0 0 0 0 0 0 0 0 0 0 0 0 0 0 0 0 0 0 0 0 0 0 0 0 0 0 0 0 0 0 0 0 0 0 0 0 0 0 0 0 0 0 0 0 0 0 0 0 0 0 0 0 0 0 0 0 0 0 0 0 0 0 0 0 0 0 0 0 0 0 0 0 0 0 0 0 0 0 0 0 0 0 0 0 0 0 0 0 0 0 0 0 0 0 0 0 0 0 0 0 0 0 0 0 0 0 0 0 0 0 0 0 0 0 0 0 0 0 0 0 0 0 0 0 0 0 0 0 0 0 0 0 0 0 0 0 0 0 0 0 0 0 0 0 0 0 0 0 0 0 0 0 0 0 0 0 0 0 0 0 0 0 0 0 0 0 0 0 0 0 0 0 0 0 0 0 0 0 0 0 0 0 0 0 0 0 0 0 0 0 0 0 0 0 0 0 0 0 0 0 0 0 0 0 0 0 0 0 0 0 0 0 0 0 0 0 0 0 0 0 0 0 0 0 0 0 0 0 0 0 0 0 0 
</DataArray>
<DataArray Name="HRRPUV" NumberOfComponents="1" type="UInt8" format="ascii">