<?xml version="1.0"?>
<VTKFile type="RectilinearGrid" version="1.0" byte_order="LittleEndian" header_type="UInt64">
<RectilinearGrid WholeExtent="25 50 0 25 0 15">
<Piece Extent="25 50 0 25 0 15">
<Coordinates>
<DataArray type="Float64" Name="Array X-Axis" format="ascii" RangeMin="15.0" RangeMax="30.0">
15.0 15.6 16.2 16.8 17.4 18.0 18.6 19.2 19.8 20.4 21.0 21.6 22.2 22.8 23.4 24.0 24.6 25.2 25.8 26.4 27.0 27.6 28.2 28.8 29.4 30.0 
</DataArray>
<DataArray type="Float64" Name="Array Y-Axis" format="ascii" RangeMin="0.0" RangeMax="15.0">
0.0 0.6 1.2 1.8 2.4 3.0 3.6 4.2 4.8 5.4 6.0 6.6 7.2 7.8 8.4 9.0 9.6 10.2 10.8 11.4 12.0 12.6 13.2 13.8 14.4 15.0 
</DataArray>
<DataArray type="Float64" Name="Array Z-Axis" format="ascii" RangeMin="0.0" RangeMax="9.0">
0.0 0.6 1.2 1.8 2.4 3.0 3.6 4.2 4.8 5.4 6.0 6.6 7.2 7.8 8.4 9.0 
</DataArray>
</Coordinates>
<PointData>
<DataArray Name="SOOT DENSITY" NumberOfComponents="1" type="UInt8" format="ascii">
0 0 0 0 0 0 0 0 0 0 0 0 0 0 0 0 0 0 0 0 0 0 0 0 0 0 0 0 0 0 0 0 0 0 0 0 0 0 0 0 0 0 0 0 0 0 0 0 0 0 0 0 0 0 0 0 0 0 0 0 0 0 0 0 0 0 0 0 0 0 0 0 0 0 0 0 0 0 0 0 0 0 0 0 0 0 0 0 0 0 0 0 0 0 0 0 0 0 0 0 0 0 0 0 0 0 0 0 0 0 0 0 0 0 0 0 0 0 0 0 0 0 0 0 0 0 0 0 0 0 0 0 0 0 0 0 0 0 0 0 0 0 0 0 0 0 0 0 0 0 0 0 0 0 0 0 0 0 0 0 0 0 0 0 0 0 0 0 0 0 0 0 0 0 0 0 0 0 0 0 0 0 0 0 0 0 0 0 0 0 0 0 0 0 0 0 0 0 0 0 0 0 0 0 0 0 0 0 0 0 0 0 0 0 0 0 0 0 0 0 0 0 0 0 0 0 0 0 0 0 0 0 0 0 0 0 0 0 0 0 0 0 0 0 0 0 0 0 0 0 0 0 0 0 0 0 0 0 0 0 0 0 0 0 0 0 0 0 0 0 0 0 0 0 0 0 0 0 0 0 0 0 0 0 0 0 0 0 0 0 0 0 0 0 0 0 0 0 0 0 0 0 0 0 0 0 0 0 0 0 0 0 0 0 0 0 0 0 0 0 0 0 0 0 0 0 0 0 0 0 0 0 0 0 0 0 0 0 0 0 0 0 0 0 0 0 0 0 0 0 0 0 0 0 0 0 0 0 0 0 0 0 0 0 0 0 0 0 0 0 0 0 0 0 0 0 0 0 0 0 0 0 0 0 0 0 0 0 0 0 0 0 0 0 0 0 0 0 0 0 0 0 0 0 0 0 0 0 0 0 0 0 0 0 0 0 0 0 0 0 0 0 0 0 0 0 0 0 0 0 0 0 0 0 0 0 0 0 0 0 0 0 0 0 0 0 0 0 0 0 0 0 0 0 0 0 0 0 0 0 0 0 0 0 0 0 0 0 0 0 0 0 0 0 0 0 0 0 0 0 0 0 0 0 0 0 0 0 0 0 0 0 0 0 0 0 0 2 5 6 3 1 0 0 0 0 0 0 0 0 0 0 0 0 0 0 0 0 0 0 0 0 3 8 9 6 3 2 2 1 0 0 0 0 0 0 0 0 0 0 0 0 0 0 0 0 0 0 3 10 7 0 0 6 12 7 0 0 0 0 0 0 0 0 0 0 0 0 0 0 0 0 0 0 1 8 7 0 0 17 24 8 0 0 0 0 0 0 0 0 0 0 0 0 0 0 0 0 0 0 1 6 9 11 16 29 25 4 0 0 0 0 0 0 0 0 0 0 0 0 0 0 0 0 0 0 0 2 5 11 17 19 12 2 0 0 0 0 0 0 0 0 0 0 0 0 0 0 0 0 0 0 0 0 0 1 1 2 1 0 0 0 0 0 0 0 0 0 0 0 0 0 0 0 0 0 0 0 0 0 0 0 0 0 0 0 0 0 0 0 0 0 0 0 0 0 0 0 0 0 0 0 0 0 0 0 0 0 0 0 0 0 0 0 0 0 0 0 0 0 0 0 0 0 0 0 0 0 0 0 0 0 0 0 0 0 0 0 0 0 0 0 0 0 0 0 0 0 0 0 0 0 0 0 0 0 0 0 0 0 0 0 0 0 0 0 0 0 0 0 0 0 0 0 0 0 0 0 0 0 0 0 0 0 0 0 0 0 0 0 0 0 0 0 0 0 0 0 0 0 0 0 0 0 0 0 0 0 0 0 0 0 0 0 0 0 0 0 0 0 0 0 0 0 0 0 0 0 0 0 0 0 0 0 0 0 0 0 0 0 0 0 0 0 0 0 0 0 0 0 0 0 0 0 0 0 0 0 0 0 0 0 0 0 0 0 0 0 0 0 0 0 0 0 0 0 0 0 0 0 0 0 0 0 0 0 0 0 0 0 0 0 0 0 0 0 0 0 0 0 0 0 0 0 0 0 0 0 0 0 0 0 0 0 0 0 0 0 0 0 0 0 0 0 0 0 0 0 0 0 0 0 0 0 0 0 0 0 0 0 0 0 0 0 0 0 0 0 0 0 0 0 0 0 0 0 0 0 0 0 0 0 0 0 0 0 0 0 0 0 0 0 0 0 0 0 0 0 0 0 0 0 0 0 0 0 0 0 0 0 0 0 0 0 0 0 0 0 0 0 0 0 0 0 0 0 0 0 0 0 0 0 0 0 0 0 0 0 0 0 0 0 0 0 0 0 0 0 0 0 0 0 0 0 0 0 0 0 0 0 0 0 0 0 0 0 0 0 0 0 0 0 0 0 0 0 0 0 0 0 0 0 0 0 0 0 0 0 0 0 0 0 0 0 0 0 0 0 0 0 0 0 0 0 0 0 0 0 0 0 0 0 0 0 0 0 0 0 0 0 0 0 0 0 0 0 0 0 0 0 0 0 0 0 0 0 0 0 0 0 0 0 0 0 0 0 0 0 0 0 0 0 0 0 0 0 0 0 0 0 0 0 0 0 0 0 0 1 3 3 2 1 0 0 0 0 0 0 0 0 0 0 0 0 0 0 0 0 0 0 0 0 2 13 47 53 24 6 1 0 0 0 0 0 0 0 0 0 0 0 0 0 0 0 0 0 0 2 18 48 135 169 142 82 14 2 0 0 0 0 0 0 0 0 0 0 0 0 0 0 0 0 0 2 20 67 187 226 214 147 45 17 1 0 0 0 0 0 0 0 0 0 0 0 0 0 0 0 0 1 8 82 200 237 232 178 80 30 2 0 0 0 0 0 0 0 0 0 0 0 0 0 0 0 0 1 5 63 154 203 202 157 95 34 2 0 0 0 0 0 0 0 0 0 0 0 0 0 0 0 0 0 1 13 35 55 59 68 59 20 1 0 0 0 0 0 0 0 0 0 0 0 0 0 0 0 0 0 0 1 2 4 8 14 9 1 0 0 0 0 0 0 0 0 0 0 0 0 0 0 0 0 0 0 0 0 0 0 0 0 0 0 0 0 0 0 0 0 0 0 0 0 0 0 0 0 0 0 0 0 0 0 0 0 0 0 0 0 0 0 0 0 0 0 0 0 0 0 0 0 0 0 0 0 0 0 0 0 0 0 0 0 0 0 0 0 0 0 0 0 0 0 0 0 0 0 0 0 0 0 0 0 0 0 0 0 0 0 0 0 0 0 0 0 0 0 0 0 0 0 0 0 0 0 0 0 0 0 0 0 0 0 0 0 0 0 0 0 0 0 0 0 0 0 0 0 0 0 0 0 0 0 0 0 0 0 0 0 0 0 0 0 0 0 0 0 0 0 0 0 0 0 0 0 0 0 0 0 0 0 0 0 0 0 0 0 0 0 0 0 0 0 0 0 0 0 0 0 0 0 0 0 0 0 0 0 0 0 0 0 0 0 0 0 0 0 0 0 0 0 0 0 0 0 0 0 0 0 0 0 0 0 0 0 0 0 0 0 0 0 0 0 0 0 0 0 0 0 0 0 0 0 0 0 0 0 0 0 0 0 0 0 0 0 0 0 0 0 0 0 0 0 0 0 0 0 0 0 0 0 0 0 0 0 0 0 0 0 0 0 0 0 0 0 0 0 0 0 0 0 0 0 0 0 0 0 0 0 0 0 0 0 0 0 0 0 0 0 0 0 0 0 0 0 0 0 0 0 0 0 0 0 0 0 0 0 0 0 0 0 0 0 0 0 0 0 0 0 0 0 0 0 0 0 0 0 0 0 0 0 0 0 0 0 0 0 0 0 0 0 0 0 0 0 0 0 0 0 0 0 0 0 0 0 0 0 0 0 0 0 0 0 0 0 0 0 0 0 0 0 0 0 0 0 0 0 0 0 0 0 0 0 0 0 0 0 0 0 0 0 0 0 0 0 0 0 0 0 0 0 0 0 0 0 0 0 0 0 0 0 0 0 0 0 0 0 0 0 0 0 0 0 0 0 0 0 0 0 0 0 0 0 0 0 0 0 1 2 2 1 2 2 0 0 0 0 0 0 0 0 0 0 0 0 0 0 0 0 0 0 0 1 4 11 15 12 19 17 3 0 0 0 0 0 0 0 0 0 0 0 0 0 0 0 0 0 0 5 15 46 98 96 64 46 12 1 0 0 0 0 0 0 0 0 0 0 0 0 0 0 0 0 1 10 47 123 208 220 203 165 57 5 0 0 0 0 0 0 0 0 0 0 0 0 0 0 0 0 2 13 57 169 244 251 249 229 124 27 2 0 0 0 0 0 0 0 0 0 0 0 0 0 0 0 2 12 36 177 248 253 252 242 176 66 4 0 0 0 0 0 0 0 0 0 0 0 0 0 0 0 1 5 21 144 231 244 241 229 189 81 4 0 0 0 0 0 0 0 0 0 0 0 0 0 0 0 0 1 7 59 119 126 112 142 129 43 2 0 0 0 0 0 0 0 0 0 0 0 0 0 0 0 0 0 1 6 11 15 25 30 18 2 0 0 0 0 0 0 0 0 0 0 0 0 0 0 0 0 0 0 0 0 0 0 0 0 0 0 0 0 0 0 0 0 0 0 0 0 0 0 0 0 0 0 0 0 0 0 0 0 0 0 0 0 0 0 0 0 0 0 0 0 0 0 0 0 0 0 0 0 0 0 0 0 0 0 0 0 0 0 0 0 0 0 0 0 0 0 0 0 0 0 0 0 0 0 0 0 0 0 0 0 0 0 0 0 0 0 0 0 0 0 0 0 0 0 0 0 0 0 0 0 0 0 0 0 0 0 0 0 0 0 0 0 0 0 0 0 0 0 0 0 0 0 0 0 0 0 0 0 0 0 0 0 0 0 0 0 0 0 0 0 0 0 0 0 0 0 0 0 0 0 0 0 0 0 0 0 0 0 0 0 0 0 0 0 0 0 0 0 0 0 0 0 0 0 0 0 0 0 0 0 0 0 0 0 0 0 0 0 0 0 0 0 0 0 0 0 0 0 0 0 0 0 0 0 0 0 0 0 0 0 0 0 0 0 0 0 0 0 0 0 0 0 0 0 0 0 0 0 0 0 0 0 0 0 0 0 0 0 0 0 0 0 0 0 0 0 0 0 0 0 0 0 0 0 0 0 0 0 0 0 0 0 0 0 0 0 0 0 0 0 0 0 0 0 0 0 0 0 0 0 0 0 0 0 0 0 0 0 0 0 0 0 0 0 0 0 0 0 0 0 0 0 0 0 0 0 0 0 0 0 0 0 0 0 0 0 0 0 0 0 0 0 0 0 0 0 0 0 0 0 0 0 0 0 0 0 0 0 0 0 0 0 0 0 0 0 0 0 0 0 0 0 0 0 0 0 0 0 0 0 0 0 0 0 0 0 0 0 0 0 0 0 0 0 0 0 0 0 0 0 0 0 0 0 0 0 0 0 0 0 0 0 0 0 0 0 0 0 0 0 0 0 0 0 0 0 0 0 0 0 0 0 0 0 2 2 1 0 0 0 0 0 0 0 0 0 0 0 0 0 0 0 0 0 0 0 0 0 0 2 17 21 7 0 4 3 0 0 0 0 0 0 0 0 0 0 0 0 0 0 0 0 0 0 2 17 54 61 34 0 29 25 6 0 0 0 0 0 0 0 0 0 0 0 0 0 0 0 0 0 14 59 100 114 126 0 93 85 42 9 0 0 0 0 0 0 0 0 0 0 0 0 0 0 0 0 32 90 147 195 224 0 212 194 121 44 2 0 0 0 0 0 0 0 0 0 0 0 0 0 0 0 37 99 175 235 250 0 251 244 195 111 16 0 0 0 0 0 0 0 0 0 0 0 0 0 0 0 28 78 153 236 252 0 253 251 236 175 42 0 0 0 0 0 0 0 0 0 0 0 0 0 0 0 11 30 81 201 244 0 246 248 238 160 32 0 0 0 0 0 0 0 0 0 0 0 0 0 0 0 1 4 20 100 165 170 178 209 182 56 2 0 0 0 0 0 0 0 0 0 0 0 0 0 0 0 0 0 2 14 22 30 57 64 31 3 0 0 0 0 0 0 0 0 0 0 0 0 0 0 0 0 0 0 0 0 0 0 0 0 0 0 0 0 0 0 0 0 0 0 0 0 0 0 0 0 0 0 0 0 0 0 0 0 0 0 0 0 0 0 0 0 0 0 0 0 0 0 0 0 0 0 0 0 0 0 0 0 0 0 0 0 0 0 0 0 0 0 0 0 0 0 0 0 0 0 0 0 0 0 0 0 0 0 0 0 0 0 0 0 0 0 0 0 0 0 0 0 0 0 0 0 0 0 0 0 0 0 0 0 0 0 0 0 0 0 0 0 0 0 0 0 0 0 0 0 0 0 0 0 0 0 0 0 0 0 0 0 0 0 0 0 0 0 0 0 0 0 0 0 0 0 0 0 0 0 0 0 0 0 0 0 0 0 0 0 0 0 0 0 0 0 0 0 0 0 0 0 0 0 0 0 0 0 0 0 0 0 0 0 0 0 0 0 0 0 0 0 0 0 0 0 0 0 0 0 0 0 0 0 0 0 0 0 0 0 0 0 0 0 0 0 0 0 0 0 0 0 0 0 0 0 0 0 0 0 0 0 0 0 0 0 0 0 0 0 0 0 0 0 0 0 0 0 0 0 0 0 0 0 0 0 0 0 0 0 0 0 0 0 0 0 0 0 0 0 0 0 0 0 0 0 0 0 0 0 0 0 0 0 0 0 0 0 0 0 0 0 0 0 0 0 0 0 0 0 0 0 0 0 0 0 0 0 0 0 0 0 0 0 0 0 0 0 0 0 0 0 0 0 0 0 0 0 0 0 0 0 0 0 0 0 0 0 0 0 0 0 0 0 0 0 0 0 0 0 0 0 0 0 0 0 0 0 0 0 0 0 0 0 0 0 0 0 0 0 0 0 0 0 0 0 0 0 0 0 0 0 0 0 0 0 0 0 0 0 0 0 0 0 0 0 0 0 0 0 0 0 0 0 0 0 0 0 0 0 0 0 0 3 6 4 1 0 0 0 0 0 0 0 0 0 0 0 0 0 0 0 0 0 0 0 0 0 4 33 56 37 0 0 0 2 1 0 0 0 0 0 0 0 0 0 0 0 0 0 0 0 0 0 37 104 138 105 0 0 0 19 9 1 0 0 0 0 0 0 0 0 0 0 0 0 0 0 0 0 75 161 187 163 0 0 0 91 64 15 0 0 0 0 0 0 0 0 0 0 0 0 0 0 0 0 86 183 218 224 0 0 0 193 145 61 3 0 0 0 0 0 0 0 0 0 0 0 0 0 0 0 74 179 235 248 0 0 0 245 217 151 23 0 0 0 0 0 0 0 0 0 0 0 0 0 0 0 47 136 222 249 0 0 0 252 248 218 67 1 0 0 0 0 0 0 0 0 0 0 0 0 0 0 19 58 139 222 0 0 0 251 248 200 54 1 0 0 0 0 0 0 0 0 0 0 0 0 0 0 4 13 34 107 153 159 191 220 191 64 5 0 0 0 0 0 0 0 0 0 0 0 0 0 0 0 1 3 6 19 26 32 71 76 30 2 0 0 0 0 0 0 0 0 0 0 0 0 0 0 0 0 0 0 0 0 0 0 0 0 0 0 0 0 0 0 0 0 0 0 0 0 0 0 0 0 0 0 0 0 0 0 0 0 0 0 0 0 0 0 0 0 0 0 0 0 0 0 0 0 0 0 0 0 0 0 0 0 0 0 0 0 0 0 0 0 0 0 0 0 0 0 0 0 0 0 0 0 0 0 0 0 0 0 0 0 0 0 0 0 0 0 0 0 0 0 0 0 0 0 0 0 0 0 0 0 0 0 0 0 0 0 0 0 0 0 0 0 0 0 0 0 0 0 0 0 0 0 0 0 0 0 0 0 0 0 0 0 0 0 0 0 0 0 0 0 0 0 0 0 0 0 0 0 0 0 0 0 0 0 0 0 0 0 0 0 0 0 0 0 0 0 0 0 0 0 0 0 0 0 0 0 0 0 0 0 0 0 0 0 0 0 0 0 0 0 0 0 0 0 0 0 0 0 0 0 0 0 0 0 0 0 0 0 0 0 0 0 0 0 0 0 0 0 0 0 0 0 0 0 0 0 0 0 0 0 0 0 0 0 0 0 0 0 0 0 0 0 0 0 0 0 0 0 0 0 0 0 0 0 0 0 0 0 0 0 0 0 0 0 0 0 0 0 0 0 0 0 0 0 0 0 0 0 0 0 0 0 0 0 0 0 0 0 0 0 0 0 0 0 0 0 0 0 0 0 0 0 0 0 0 0 0 0 0 0 0 0 0 0 0 0 0 0 0 0 0 0 0 0 0 0 0 0 0 0 0 0 0 0 0 0 0 0 0 0 0 0 0 0 0 0 0 0 0 0 0 0 0 0 0 0 0 0 0 0 0 0 0 0 0 0 0 0 0 0 0 0 0 0 0 0 0 0 0 0 0 0 0 0 0 0 0 0 0 0 0 0 0 0 0 0 0 0 0 0 0 0 0 0 0 0 0 0 0 0 0 0 3 6 6 3 1 0 0 0 0 0 0 0 0 0 0 0 0 0 0 0 0 0 0 0 0 0 22 76 83 0 0 0 2 1 1 0 0 0 0 0 0 0 0 0 0 0 0 0 0 0 0 0 100 182 182 0 0 0 16 23 15 1 0 0 0 0 0 0 0 0 0 0 0 0 0 0 0 0 163 221 219 0 0 0 82 112 85 12 1 0 0 0 0 0 0 0 0 0 0 0 0 0 0 0 172 230 237 0 0 0 192 200 161 44 4 0 0 0 0 0 0 0 0 0 0 0 0 0 0 0 150 226 246 0 0 0 250 246 220 117 16 0 0 0 0 0 0 0 0 0 0 0 0 0 0 0 100 187 238 0 0 0 253 252 247 190 42 1 0 0 0 0 0 0 0 0 0 0 0 0 0 0 47 89 164 0 0 0 239 248 243 169 36 1 0 0 0 0 0 0 0 0 0 0 0 0 0 0 25 32 47 95 113 104 142 183 151 44 5 0 0 0 0 0 0 0 0 0 0 0 0 0 0 0 8 10 14 26 30 24 46 45 13 1 0 0 0 0 0 0 0 0 0 0 0 0 0 0 0 0 0 0 0 0 0 0 0 0 0 0 0 0 0 0 0 0 0 0 0 0 0 0 0 0 0 0 0 0 0 0 0 0 0 0 0 0 0 0 0 0 0 0 0 0 0 0 0 0 0 0 0 0 0 0 0 0 0 0 0 0 0 0 0 0 0 0 0 0 0 0 0 0 0 0 0 0 0 0 0 0 0 0 0 0 0 0 0 0 0 0 0 0 0 0 0 0 0 0 0 0 0 0 0 0 0 0 0 0 0 0 0 0 0 0 0 0 0 0 0 0 0 0 0 0 0 0 0 0 0 0 0 0 0 0 0 0 0 0 0 0 0 0 0 0 0 0 0 0 0 0 0 0 0 0 0 0 0 0 0 0 0 0 0 0 0 0 0 0 0 0 0 0 0 0 0 0 0 0 0 0 0 0 0 0 0 0 0 0 0 0 0 0 0 0 0 0 0 0 0 0 0 0 0 0 0 0 0 0 0 0 0 0 0 0 0 0 0 0 0 0 0 0 0 0 0 0 0 0 0 0 0 0 0 0 0 0 0 0 0 0 0 0 0 0 0 0 0 0 0 0 0 0 0 0 0 0 0 0 0 0 0 0 0 0 0 0 0 0 0 0 0 0 0 0 0 0 0 0 0 0 0 0 0 0 0 0 0 0 0 0 0 0 0 0 0 0 0 0 0 0 0 0 0 0 0 0 0 0 0 0 0 0 0 0 0 0 0 0 0 0 0 0 0 0 0 0 0 0 0 0 0 0 0 0 0 0 0 0 0 0 0 0 0 0 0 0 0 0 0 0 0 0 0 0 0 0 0 0 0 0 0 0 0 0 0 0 0 0 0 0 0 0 0 0 0 0 0 0 0 0 0 0 0 0 0 0 0 0 0 0 0 1 1 0 0 0 0 0 0 0 0 0 0 0 0 0 0 0 0 0 0 0 0 0 0 0 5 7 5 2 0 0 0 0 0 0 0 0 0 0 0 0 0 0 0 0 0 0 0 0 0 0 36 92 0 0 0 1 1 1 0 0 0 0 0 0 0 0 0 0 0 0 0 0 0 0 0 0 124 201 0 0 0 12 11 24 18 1 0 0 0 0 0 0 0 0 0 0 0 0 0 0 0 0 204 236 0 0 0 117 91 135 106 10 1 0 0 0 0 0 0 0 0 0 0 0 0 0 0 0 222 243 0 0 0 219 204 221 187 38 4 0 0 0 0 0 0 0 0 0 0 0 0 0 0 0 211 242 0 0 0 251 251 249 223 76 11 1 0 0 0 0 0 0 0 0 0 0 0 0 0 0 170 217 0 0 0 252 252 252 240 113 17 1 0 0 0 0 0 0 0 0 0 0 0 0 0 0 117 131 0 0 0 217 229 242 225 91 14 1 0 0 0 0 0 0 0 0 0 0 0 0 0 0 82 70 65 88 83 66 94 133 102 24 6 0 0 0 0 0 0 0 0 0 0 0 0 0 0 0 44 44 33 41 37 20 22 25 12 2 0 0 0 0 0 0 0 0 0 0 0 0 0 0 0 0 0 0 0 0 0 0 0 0 0 0 0 0 0 0 0 0 0 0 0 0 0 0 0 0 0 0 0 0 0 0 0 0 0 0 0 0 0 0 0 0 0 0 0 0 0 0 0 0 0 0 0 0 0 0 0 0 0 0 0 0 0 0 0 0 0 0 0 0 0 0 0 0 0 0 0 0 0 0 0 0 0 0 0 0 0 0 0 0 0 0 0 0 0 0 0 0 0 0 0 0 0 0 0 0 0 0 0 0 0 0 0 0 0 0 0 0 0 0 0 0 0 0 0 0 0 0 0 0 0 0 0 0 0 0 0 0 0 0 0 0 0 0 0 0 0 0 0 0 0 0 0 0 0 0 0 0 0 0 0 0 0 0 0 0 0 0 0 0 0 0 0 0 0 0 0 0 0 0 0 0 0 0 0 0 0 0 0 0 0 0 0 0 0 0 0 0 0 0 0 0 0 0 0 0 0 0 0 0 0 0 0 0 0 0 0 0 0 0 0 0 0 0 0 0 0 0 0 0 0 0 0 0 0 0 0 0 0 0 0 0 0 0 0 0 0 0 0 0 0 0 0 0 0 0 0 0 0 0 0 0 0 0 0 0 0 0 0 0 0 0 0 0 0 0 0 0 0 0 0 0 0 0 0 0 0 0 0 0 0 0 0 0 0 0 0 0 0 0 0 0 0 0 0 0 0 0 0 0 0 0 0 0 0 0 0 0 0 0 0 0 0 0 0 0 0 0 0 0 0 0 0 0 0 0 0 0 0 0 0 0 0 0 0 0 0 0 0 0 0 0 0 0 0 0 0 0 0 0 0 0 0 0 0 0 0 0 0 0 0 0 0 0 0 0 0 0 0 0 0 0 0 0 0 0 0 0 0 0 0 0 0 1 1 0 0 0 0 0 0 0 0 0 0 0 0 0 0 0 0 0 0 0 0 0 0 0 6 8 5 1 0 0 0 0 0 0 0 0 0 0 0 0 0 0 0 0 0 0 0 0 0 0 31 0 0 0 1 1 0 1 1 0 0 0 0 0 0 0 0 0 0 0 0 0 0 0 0 0 112 0 0 0 22 16 7 17 15 2 0 0 0 0 0 0 0 0 0 0 0 0 0 0 0 0 213 0 0 0 199 167 93 132 110 15 2 0 0 0 0 0 0 0 0 0 0 0 0 0 0 0 238 0 0 0 249 242 221 230 199 41 6 1 0 0 0 0 0 0 0 0 0 0 0 0 0 0 233 0 0 0 253 253 252 251 228 73 10 1 0 0 0 0 0 0 0 0 0 0 0 0 0 0 215 0 0 0 250 251 252 252 237 90 14 2 0 0 0 0 0 0 0 0 0 0 0 0 0 0 183 0 0 0 188 191 218 238 219 93 26 3 0 0 0 0 0 0 0 0 0 0 0 0 0 0 143 113 94 96 72 50 76 133 127 63 23 2 0 0 0 0 0 0 0 0 0 0 0 0 0 0 108 103 69 52 31 15 19 32 28 14 5 0 0 0 0 0 0 0 0 0 0 0 0 0 0 0 0 0 0 0 0 0 0 0 0 0 0 0 0 0 0 0 0 0 0 0 0 0 0 0 0 0 0 0 0 0 0 0 0 0 0 0 0 0 0 0 0 0 0 0 0 0 0 0 0 0 0 0 0 0 0 0 0 0 0 0 0 0 0 0 0 0 0 0 0 0 0 0 0 0 0 0 0 0 0 0 0 0 0 0 0 0 0 0 0 0 0 0 0 0 0 0 0 0 0 0 0 0 0 0 0 0 0 0 0 0 0 0 0 0 0 0 0 0 0 0 0 0 0 0 0 0 0 0 0 0 0 0 0 0 0 0 0 0 0 0 0 0 0 0 0 0 0 0 0 0 0 0 0 0 0 0 0 0 0 0 0 0 0 0 0 0 0 0 0 0 0 0 0 0 0 0 0 0 0 0 0 0 0 0 0 0 0 0 0 0 0 0 0 0 0 0 0 0 0 0 0 0 0 0 0 0 0 0 0 0 0 0 0 0 0 0 0 0 0 0 0 0 0 0 0 0 0 0 0 0 0 0 0 0 0 0 0 0 0 0 0 0 0 0 0 0 0 0 0 0 0 0 0 0 0 0 0 0 0 0 0 0 0 0 0 0 0 0 0 0 0 0 0 0 0 0 0 0 0 0 0 0 0 0 0 0 0 0 0 0 0 0 0 0 0 0 0 0 0 0 0 0 0 0 0 0 0 0 0 0 0 0 0 0 0 0 0 0 0 0 0 0 0 0 0 0 0 0 0 0 0 0 0 0 0 0 0 0 0 0 0 0 0 0 0 0 0 0 0 0 0 0 0 0 0 0 0 0 0 0 0 0 0 0 0 0 0 0 0 0 0 0 0 0 0 0 0 0 0 0 0 0 0 0 0 0 0 0 0 0 0 1 1 0 0 0 0 0 0 0 0 0 0 0 0 0 0 0 0 0 0 0 0 0 0 0 4 6 4 1 0 0 0 0 0 0 0 0 0 0 0 0 0 0 0 0 0 0 0 0 0 0 21 27 0 4 1 0 0 1 1 0 0 0 0 0 0 0 0 0 0 0 0 0 0 0 0 0 81 88 0 13 14 11 6 11 14 7 0 0 0 0 0 0 0 0 0 0 0 0 0 0 0 0 194 181 0 157 184 162 82 104 93 26 4 0 0 0 0 0 0 0 0 0 0 0 0 0 0 0 235 229 0 243 247 245 229 228 197 59 11 2 0 0 0 0 0 0 0 0 0 0 0 0 0 0 239 240 0 252 252 253 253 251 234 98 17 2 0 0 0 0 0 0 0 0 0 0 0 0 0 0 233 238 0 249 245 247 251 251 237 104 19 3 0 0 0 0 0 0 0 0 0 0 0 0 0 0 210 210 0 209 175 142 183 228 217 108 33 4 0 0 0 0 0 0 0 0 0 0 0 0 0 0 185 151 130 113 70 42 58 128 141 84 30 2 0 0 0 0 0 0 0 0 0 0 0 0 0 0 155 137 89 55 21 11 19 34 34 19 7 0 0 0 0 0 0 0 0 0 0 0 0 0 0 0 0 0 0 0 0 0 0 0 0 0 0 0 0 0 0 0 0 0 0 0 0 0 0 0 0 0 0 0 0 0 0 0 0 0 0 0 0 0 0 0 0 0 0 0 0 0 0 0 0 0 0 0 0 0 0 0 0 0 0 0 0 0 0 0 0 0 0 0 0 0 0 0 0 0 0 0 0 0 0 0 1 1 0 0 0 0 0 0 0 0 0 0 0 0 0 0 0 0 0 0 0 0 0 0 0 1 1 1 0 1 1 1 1 0 0 0 0 0 0 0 0 0 0 0 0 0 0 0 0 0 1 1 1 1 1 1 1 1 1 1 1 1 0 0 0 0 0 0 0 0 0 0 0 0 0 0 2 1 1 2 1 1 1 1 1 1 1 0 0 0 0 0 0 0 0 0 0 0 0 0 0 0 2 1 1 1 1 1 1 1 1 0 0 0 0 0 0 0 0 0 0 0 0 0 0 0 0 0 1 1 1 1 1 2 2 1 0 0 0 0 0 0 0 0 0 0 0 0 0 0 0 0 0 0 1 1 1 2 2 2 2 1 0 0 0 0 0 0 0 0 0 0 0 0 0 0 0 0 0 0 1 2 2 3 3 3 2 1 0 0 0 0 0 0 0 0 0 0 0 0 0 0 0 0 0 0 2 2 2 2 3 3 1 0 0 0 0 0 0 0 0 0 0 0 0 0 0 0 0 0 0 0 2 2 2 2 2 2 1 0 0 0 0 0 0 0 0 0 0 0 0 0 0 0 0 0 0 0 2 2 2 2 2 1 1 0 0 0 0 0 0 0 0 0 0 0 0 0 0 0 0 0 0 0 1 2 2 2 1 1 0 0 0 0 0 0 0 0 0 0 0 0 0 0 0 0 0 0 0 0 1 3 3 2 1 1 0 0 0 0 0 0 0 0 0 0 0 0 0 0 0 0 0 0 0 0 4 6 5 3 1 0 0 0 0 0 0 0 0 0 0 0 0 0 0 0 0 0 0 0 0 0 16 23 18 7 2 1 1 1 1 1 0 0 0 0 0 0 0 0 0 0 0 0 0 0 0 0 50 72 54 21 10 6 7 10 19 16 3 1 0 0 0 0 0 0 0 0 0 0 0 0 0 0 132 152 120 87 109 101 64 84 95 57 12 2 1 0 0 0 0 0 0 0 1 1 0 0 0 0 202 209 204 200 215 232 224 220 202 109 28 5 2 1 0 0 0 0 0 0 1 1 1 0 0 0 230 232 239 242 244 251 252 250 238 138 32 7 2 1 0 0 0 0 0 0 0 1 0 0 0 0 234 235 242 244 238 241 247 249 235 123 25 7 2 1 0 0 0 0 0 0 0 0 0 0 0 0 221 221 223 218 175 118 143 204 196 94 25 6 2 1 0 0 0 0 0 0 0 0 0 0 0 0 215 199 177 140 78 42 45 90 103 59 17 4 1 0 0 0 0 0 0 0 0 0 0 0 0 0 180 166 112 59 18 10 16 23 22 12 4 2 1 0 0 0 0 0 0 0 0 0 0 0 0 0 0 0 1 1 1 1 0 0 0 1 1 1 1 0 0 0 0 0 0 0 0 0 0 0 0 0 2 2 3 6 5 2 1 1 1 1 1 2 2 1 1 1 1 1 1 1 1 0 0 0 0 0 3 3 6 9 7 4 3 3 3 3 2 3 3 2 2 2 2 2 1 1 1 1 1 0 0 0 4 4 8 9 6 6 6 5 4 5 4 4 3 3 3 2 2 2 2 2 1 1 0 1 0 0 6 5 9 9 6 7 8 7 6 7 8 6 4 3 2 2 2 2 2 1 1 1 1 1 1 0 8 7 11 11 8 8 8 8 7 7 8 7 5 4 3 2 2 1 1 1 1 1 1 1 1 0 10 8 11 14 11 9 8 7 5 5 5 6 5 4 3 2 1 1 1 1 1 1 1 1 1 0 11 8 9 14 14 12 11 8 5 3 3 3 3 3 2 1 1 1 1 1 1 1 1 1 1 0 13 8 9 15 17 18 18 12 7 3 2 2 2 2 1 1 0 0 1 1 1 1 1 1 1 0 16 12 14 21 25 28 23 13 7 3 1 1 1 1 0 0 0 0 0 1 1 1 1 1 1 0 20 23 26 27 33 34 22 11 6 2 1 1 1 0 0 0 0 0 0 1 1 1 2 2 1 0 23 30 30 26 30 27 14 9 5 2 1 0 0 0 0 0 0 0 0 0 1 1 2 2 1 0 22 30 29 22 20 15 8 6 4 2 1 0 0 0 0 0 0 0 0 0 1 1 2 2 1 0 19 29 30 22 15 9 5 3 2 1 1 0 0 0 0 0 0 0 0 0 0 1 1 2 1 0 14 21 22 18 11 6 3 1 1 1 0 0 0 0 0 0 0 0 0 0 0 1 1 2 1 0 9 14 14 12 8 3 2 1 0 0 0 0 0 0 0 0 0 0 0 0 0 1 1 2 1 0 9 13 14 12 7 2 2 2 0 0 0 0 0 0 0 0 0 0 0 0 1 1 1 1 1 0 19 25 26 22 14 11 15 11 4 1 0 1 1 1 1 1 0 0 0 1 1 1 1 1 1 0 53 85 84 63 44 39 49 31 23 18 4 2 1 1 1 1 1 0 0 1 1 2 2 1 1 0 120 169 159 108 77 67 82 97 103 69 16 4 3 2 1 1 1 1 1 1 2 2 2 1 1 0 173 209 207 158 138 192 205 210 205 131 35 8 4 2 1 1 1 1 1 1 2 2 2 1 1 0 216 226 232 219 219 243 247 246 234 146 39 12 5 3 1 1 1 1 1 1 1 2 2 2 1 0 234 235 239 235 226 232 237 238 220 118 30 13 5 3 1 1 1 1 1 1 1 2 2 2 1 0 232 232 230 221 182 129 116 154 153 80 24 10 4 2 1 1 1 1 1 1 1 2 2 2 1 0 227 227 209 175 114 55 41 52 65 45 16 7 3 2 1 1 1 1 1 1 1 2 2 1 1 0 189 205 167 96 41 19 17 16 20 17 8 4 3 1 1 1 1 1 1 1 1 2 2 1 1 0 9 10 28 30 13 9 4 7 16 17 13 11 8 7 8 6 5 5 5 5 4 4 3 2 2 1 23 25 36 40 28 18 12 14 21 21 17 14 10 8 9 9 10 10 10 10 9 8 6 4 3 2 30 34 43 44 31 23 20 22 30 29 22 17 13 10 10 12 13 13 13 12 10 8 7 6 5 2 30 33 43 43 33 29 26 31 37 38 34 25 18 14 14 14 15 16 16 14 11 9 7 8 7 3 27 27 37 45 41 33 31 36 38 43 48 42 31 24 22 18 16 15 15 13 10 9 8 9 8 3 36 36 43 59 58 43 36 34 31 35 47 50 43 36 33 27 20 15 13 11 9 8 9 10 8 3 55 52 57 77 74 55 43 32 25 23 33 43 44 42 40 34 24 15 12 11 9 9 10 10 9 3 69 57 65 87 85 66 54 38 26 17 22 31 36 37 34 28 19 13 11 11 10 10 11 11 9 3 76 53 65 91 95 84 70 50 30 16 15 19 22 22 18 13 10 9 10 11 12 12 12 12 10 7 81 70 83 98 106 101 83 61 36 19 13 12 12 10 8 6 5 6 7 9 11 13 12 13 12 11 86 97 104 98 103 99 83 68 45 26 17 12 9 6 4 4 4 4 5 7 10 12 13 13 13 9 87 107 105 84 79 76 72 71 55 34 21 12 7 5 4 3 3 3 4 5 8 10 12 13 13 6 99 115 106 76 56 50 52 55 50 36 21 11 6 4 3 3 3 3 3 4 6 8 10 12 13 6 108 121 111 80 47 33 29 28 33 29 17 9 5 3 3 3 3 3 3 4 4 6 7 11 13 6 90 94 91 71 40 23 17 14 16 15 10 6 4 3 3 2 2 3 3 4 4 4 6 9 12 6 62 55 65 59 30 15 10 7 6 6 6 6 6 7 6 4 3 3 3 3 3 4 6 9 12 6 50 39 59 67 44 34 25 8 3 3 4 6 8 11 11 8 5 3 3 3 3 4 6 9 12 9 50 63 86 101 99 99 83 33 10 6 5 6 8 11 13 12 8 5 3 3 4 4 6 9 12 12 116 152 155 150 143 144 138 79 34 26 13 8 8 10 12 12 9 6 3 3 4 5 7 10 12 12 189 215 205 177 147 138 144 125 105 71 28 11 9 9 10 11 10 6 4 4 5 6 7 9 11 11 210 231 224 188 154 170 186 198 191 119 39 16 11 10 10 11 9 6 4 4 5 5 6 8 10 10 226 235 231 211 201 224 229 227 209 119 42 22 12 10 11 11 9 6 4 4 5 6 7 10 12 12 239 238 233 223 214 219 211 200 171 89 41 24 13 10 11 11 10 7 5 5 5 8 10 13 14 13 238 234 224 215 196 164 122 106 108 74 37 19 11 9 10 11 10 8 5 5 6 8 10 12 13 12 230 232 210 186 158 115 78 53 62 53 26 13 10 9 10 11 10 8 5 4 5 7 9 10 11 11 197 221 185 123 98 78 54 30 29 25 13 10 10 10 10 10 10 8 5 4 4 6 7 9 10 8 61 83 104 100 73 63 52 54 71 69 41 27 22 14 14 20 21 26 36 39 37 35 28 24 22 9 90 93 101 97 78 69 63 62 73 75 62 52 39 29 28 32 37 41 44 45 44 42 36 31 28 19 94 92 93 87 76 74 76 81 86 83 74 63 47 37 37 44 49 52 53 50 47 43 39 36 32 21 82 81 88 92 94 88 90 104 106 97 83 69 55 48 49 54 58 60 61 58 52 44 38 37 35 24 82 86 94 122 130 111 106 113 110 104 97 87 76 69 69 68 66 63 61 58 51 42 37 37 34 23 114 117 124 155 157 140 130 120 105 95 93 90 84 81 82 81 75 68 63 58 52 44 38 35 31 20 145 142 151 170 168 157 149 134 114 90 80 80 78 79 80 82 78 69 62 59 54 47 41 37 32 20 157 149 160 175 172 162 155 142 126 98 74 68 67 65 64 66 66 62 58 58 56 53 47 43 37 20 164 153 162 176 176 165 155 147 135 112 79 59 53 47 41 41 44 48 50 55 57 58 52 50 42 23 171 170 173 174 172 162 150 150 144 127 98 68 50 38 30 26 28 32 36 44 50 56 54 56 50 32 172 184 182 164 153 147 142 149 147 137 117 87 60 41 30 23 23 26 30 38 47 55 54 58 57 46 170 188 179 148 124 126 134 141 140 135 121 93 65 46 34 25 22 22 26 32 40 47 47 52 56 48 182 193 181 148 109 108 117 116 117 119 111 88 62 43 32 25 21 20 22 27 34 39 38 46 55 49 195 198 187 159 111 92 89 78 82 92 89 74 53 38 27 21 19 19 20 23 28 31 30 41 54 50 186 180 176 156 108 77 63 49 48 58 61 55 47 41 30 20 17 17 18 21 24 25 26 38 53 50 156 140 154 150 105 67 50 31 25 31 38 42 47 52 45 29 20 17 18 19 20 22 24 37 52 49 122 111 144 164 136 113 91 33 16 19 25 35 46 59 60 45 27 18 17 18 18 20 24 38 52 51 105 140 172 188 185 183 160 70 24 23 25 33 43 54 61 56 37 21 16 16 18 21 25 39 51 51 160 203 210 207 206 207 195 124 55 47 37 36 42 48 55 55 41 23 15 15 18 23 29 41 47 38 213 231 226 213 202 198 192 154 110 84 52 41 45 48 48 46 37 23 15 15 18 23 28 39 44 33 227 237 229 209 195 192 192 191 169 108 59 46 45 45 43 38 32 22 16 15 18 22 26 36 43 40 236 238 228 210 204 211 209 201 172 104 62 52 43 40 38 35 31 24 18 18 20 25 30 41 48 44 242 238 226 213 209 212 196 160 129 88 65 54 43 37 35 34 31 26 20 20 23 32 39 46 49 45 240 232 214 205 202 194 161 116 101 80 59 49 43 36 32 31 29 24 19 19 24 33 40 44 43 38 231 225 194 178 180 172 144 108 90 66 44 45 48 39 32 30 27 22 17 16 20 29 36 39 38 34 199 212 163 129 149 154 132 100 66 37 31 46 54 43 32 29 26 21 17 15 18 26 31 37 39 27 116 151 160 159 155 155 154 149 143 128 97 83 78 71 68 74 77 81 88 88 86 83 76 71 68 45 146 151 155 157 160 164 164 158 150 135 113 101 94 88 85 86 90 93 96 95 92 88 82 78 75 67 151 150 150 156 169 175 176 174 164 146 125 108 97 94 94 96 100 104 108 107 101 91 84 82 78 70 150 152 159 171 183 182 182 185 178 160 135 109 95 94 98 102 104 108 115 118 111 96 83 78 76 68 157 164 174 192 199 192 188 187 179 163 141 117 101 99 103 106 107 110 117 122 117 102 84 74 70 63 175 181 192 206 208 203 198 189 174 157 137 114 99 97 101 105 109 113 119 123 121 111 95 80 70 59 190 192 204 210 209 209 206 196 179 157 134 114 98 92 94 101 109 113 114 117 119 117 111 99 80 61 197 198 207 210 209 209 206 199 185 165 143 127 112 98 90 93 102 105 104 106 111 117 119 116 96 72 209 209 211 210 209 206 202 200 192 179 159 139 124 109 96 89 89 91 94 98 103 111 117 122 108 84 219 219 214 207 205 201 195 198 198 191 174 149 130 117 104 90 82 80 82 88 94 102 109 120 116 98 222 222 214 199 194 194 188 189 193 192 181 157 133 121 108 93 80 74 76 81 89 99 104 116 122 117 220 222 212 193 183 186 182 173 171 177 173 153 131 121 110 95 79 69 68 73 81 90 95 107 119 121 222 223 213 195 175 176 176 155 142 151 154 141 126 119 111 97 78 65 63 67 74 81 85 97 114 119 224 223 215 200 174 168 170 142 114 126 132 127 119 120 117 104 85 67 60 63 68 73 75 87 107 115 217 217 215 202 174 165 169 136 95 104 112 114 118 129 131 118 98 76 62 61 64 67 69 81 101 110 200 203 213 208 181 171 173 130 84 90 99 108 121 141 147 134 110 85 66 60 61 63 67 78 97 105 177 191 212 216 202 194 187 128 84 89 98 109 123 144 157 149 122 89 67 59 59 61 65 77 95 102 168 201 219 222 219 217 205 142 93 96 103 112 125 142 158 158 132 93 66 56 56 60 64 78 95 101 191 222 228 226 226 224 213 163 110 106 106 114 127 141 155 158 137 95 63 53 55 60 67 81 94 91 218 233 232 226 224 219 208 173 135 121 110 114 128 141 150 152 134 95 60 50 53 60 68 82 94 89 230 236 231 222 218 211 201 187 162 131 114 117 129 138 140 137 121 90 63 53 55 62 69 83 96 97 236 235 226 216 212 210 205 193 168 134 121 125 133 136 130 120 106 91 76 66 65 70 76 89 101 102 239 234 223 213 211 210 199 175 152 131 121 125 133 135 123 105 95 90 81 72 70 76 82 92 99 98 238 230 219 211 209 206 189 162 146 125 112 120 132 134 115 91 82 80 74 67 67 74 81 88 92 88 229 221 205 199 202 201 188 170 149 121 107 120 138 137 113 87 78 77 72 65 62 69 75 83 87 84 192 204 180 179 195 198 189 172 137 103 98 122 143 139 113 86 78 74 68 60 57 63 69 79 88 68 78 106 112 115 121 127 130 124 110 92 76 70 68 65 63 63 65 65 65 62 61 59 56 53 51 38 100 106 111 118 131 138 139 134 119 98 79 71 71 71 69 67 68 69 70 68 65 61 58 56 55 53 108 111 114 126 145 151 150 146 133 111 87 71 69 73 73 71 71 74 78 78 73 64 58 58 56 55 117 121 129 141 153 154 152 149 140 122 97 73 63 66 70 70 70 74 82 87 82 69 58 54 52 51 123 129 143 153 157 155 152 147 138 124 102 76 60 59 63 65 67 72 83 91 89 77 61 51 48 47 128 135 150 156 157 157 153 144 132 117 99 75 57 54 55 58 63 72 83 91 92 86 74 60 50 44 132 139 154 156 156 159 155 144 129 115 99 81 64 55 54 57 64 71 77 83 89 92 89 79 61 47 140 145 156 156 157 159 153 145 129 117 110 100 86 72 63 60 64 67 68 71 77 87 94 94 76 59 161 161 162 157 157 156 150 146 134 127 123 114 103 91 78 67 62 61 62 63 67 77 89 96 85 71 178 174 165 155 155 156 147 144 140 136 129 117 107 99 89 75 64 59 59 60 63 69 78 90 90 83 182 176 161 149 152 156 145 135 131 132 127 113 102 99 91 79 66 57 55 56 59 65 72 84 92 92 181 175 159 146 146 149 139 119 106 112 112 101 94 95 90 79 65 54 51 52 54 60 67 78 89 93 180 174 160 146 138 139 135 108 84 87 90 88 89 94 93 81 64 51 47 48 50 55 61 70 84 91 174 171 162 146 131 133 138 109 73 75 78 81 87 98 102 92 73 55 47 46 48 51 56 63 76 84 161 167 166 152 131 136 147 115 70 70 74 79 90 107 116 108 88 65 50 46 47 49 52 57 70 78 145 160 172 164 142 147 157 117 70 70 75 82 95 115 127 120 100 74 54 46 47 48 51 54 65 73 131 156 175 173 160 161 160 113 74 78 83 89 99 117 132 130 109 78 55 46 46 47 49 52 63 71 130 161 178 176 172 171 160 114 81 84 89 94 103 118 133 136 116 81 55 45 44 45 47 52 64 71 148 173 180 177 177 173 157 117 88 87 88 95 106 120 134 138 119 82 52 42 42 44 47 55 66 71 168 183 182 177 175 166 146 117 97 92 88 93 105 119 130 134 118 83 50 40 41 44 49 57 68 72 178 184 179 171 166 154 137 122 108 96 90 95 107 117 122 121 107 79 53 43 43 47 52 60 71 75 182 179 171 161 155 149 141 130 114 100 95 102 114 119 114 105 92 78 65 55 52 53 57 64 74 78 185 175 166 157 152 148 140 126 111 99 94 101 114 119 107 89 80 76 69 59 55 55 58 64 72 75 185 173 167 158 153 148 135 122 111 95 88 97 113 118 101 76 67 67 63 55 51 52 55 63 68 68 172 166 161 154 153 148 138 128 115 97 88 98 115 120 99 72 65 65 62 54 49 49 52 59 66 66 129 147 141 144 152 149 143 131 108 87 83 98 118 121 98 72 65 63 58 50 45 46 48 56 65 52 0 0 0 0 0 0 0 0 0 0 0 0 0 0 0 0 0 0 0 0 0 0 0 0 0 0 0 0 0 0 0 0 0 0 0 0 0 0 0 0 0 0 0 0 0 0 0 0 0 0 0 0 0 0 0 0 0 0 0 0 0 0 0 0 0 0 0 0 0 0 0 0 0 0 0 0 0 0 0 0 0 0 0 0 0 0 0 0 0 0 0 0 0 0 0 0 0 0 0 0 0 0 0 0 0 0 0 0 0 0 0 0 0 0 0 0 0 0 0 0 0 0 0 0 0 0 0 0 0 0 0 0 0 0 0 0 0 0 0 0 0 0 0 0 0 0 0 0 0 0 0 0 0 0 0 0 0 0 0 0 0 0 0 0 0 0 0 0 0 0 0 0 0 0 0 0 0 0 0 0 0 0 0 0 0 0 0 0 0 0 0 0 0 0 0 0 0 0 0 0 0 0 0 0 0 0 0 0 0 0 0 0 0 0 0 0 0 0 0 0 0 0 0 0 0 0 0 0 0 0 0 0 0 0 0 0 0 0 0 0 0 0 0 0 0 0 0 0 0 0 0 0 0 0 0 0 0 0 0 0 0 0 0 0 0 0 0 0 0 0 0 0 0 0 0 0 0 0 0 0 0 0 0 0 0 0 0 0 0 0 0 0 0 0 0 0 0 0 0 0 0 0 0 0 0 0 0 0 0 0 0 0 0 0 0 0 0 0 0 0 0 0 0 0 0 0 0 0 0 0 0 0 0 0 0 0 0 0 0 0 0 0 0 0 0 0 0 0 0 0 0 0 0 0 0 0 0 0 0 0 0 0 0 0 0 0 0 0 0 0 0 0 0 0 0 0 0 0 0 0 0 0 0 0 0 0 0 0 0 0 0 0 0 0 0 0 0 0 0 0 0 0 0 0 0 0 0 0 0 0 0 0 0 0 0 0 0 0 0 0 0 0 0 0 0 0 0 0 0 0 0 0 0 0 0 0 0 0 0 0 0 0 0 0 0 0 0 0 0 0 0 0 0 0 0 0 0 0 0 0 0 0 0 0 0 0 0 0 0 0 0 0 0 0 0 0 0 0 0 0 0 0 0 0 0 0 0 0 0 0 0 0 0 0 0 0 0 0 0 0 0 0 0 0 0 0 0 0 0 0 0 0 0 0 0 0 0 0 0 0 0 0 0 0 0 0 0 0 0 0 0 0 0 0 0 0 0 0 0 0 0 0 0 0 0 0 0 0 0 0 0 0 0 0 0 0 0 0 0 0 0 0 0 0 0 0 0 0 0 0 0 0 0 0 0 0 0 0 0 0 0 0 0 0 0 0 0 0 0 0 0 0 0 0 0 0 0 0 0 0 0 0 0 0 0 0 0 0 0 0 0 0 0 0 0 0 0 0 0 0 0 0 0 0 0 0 0 0 0 0 0 0 0 0 0 0 0 0 0 0 0 0 0 0 0 0 0 0 0 0 0 0 0 0 0 0 0 0 0 0 0 0 0 0 0 0 0 0 0 0 0 0 0 0 0 0 
</DataArray>
<DataArray Name="HRRPUV" NumberOfComponents="1" type="UInt8" format="ascii">