<?xml version="1.0"?>
<VTKFile type="RectilinearGrid" version="1.0" byte_order="LittleEndian" header_type="UInt64">
<RectilinearGrid WholeExtent="0 25 0 25 0 15">
<Piece Extent="0 25 0 25 0 15">
<Coordinates>
<DataArray type="Float64" Name="Array X-Axis" format="ascii" RangeMin="0.0" RangeMax="15.0">
0.0 0.6 1.2 1.8 2.4 3.0 3.6 4.2 4.8 5.4 6.0 6.6 7.2 7.8 8.4 9.0 9.6 10.2 10.8 11.4 12.0 12.6 13.2 13.8 14.4 15.0 
</DataArray>
<DataArray type="Float64" Name="Array Y-Axis" format="ascii" RangeMin="0.0" RangeMax="15.0">
0.0 0.6 1.2 1.8 2.4 3.0 3.6 4.2 4.8 5.4 6.0 6.6 7.2 7.8 8.4 9.0 9.6 10.2 10.8 11.4 12.0 12.6 13.2 13.8 14.4 15.0 
</DataArray>
<DataArray type="Float64" Name="Array Z-Axis" format="ascii" RangeMin="0.0" RangeMax="9.0">
0.0 0.6 1.2 1.8 2.4 3.0 3.6 4.2 4.8 5.4 6.0 6.6 7.2 7.8 8.4 9.0 
</DataArray>
</Coordinates>
<PointData>
<DataArray Name="SOOT DENSITY" NumberOfComponents="1" type="UInt8" format="ascii">
0 0 0 0 0 0 0 0 0 0 0 0 0 0 0 0 0 0 0 0 0 0 0 0 0 0 0 0 0 0 0 0 0 0 0 0 0 0 0 0 0 0 0 0 0 0 0 0 0 0 0 0 0 0 0 0 0 0 0 0 0 0 0 0 0 0 0 0 0 0 0 0 0 0 0 0 0 0 0 0 0 0 0 0 0 0 0 0 0 0 0 0 0 0 0 0 0 0 0 0 0 0 0 0 0 0 0 0 0 0 0 0 0 0 0 0 0 0 0 0 0 0 0 0 0 0 0 0 0 0 0 0 0 0 0 0 0 0 0 0 0 0 0 0 0 0 0 0 0 0 0 0 0 0 0 0 0 0 0 0 0 0 0 0 0 0 0 0 0 0 0 0 0 0 0 0 0 0 0 0 0 0 0 0 0 0 0 0 0 0 0 0 0 0 0 0 0 0 0 0 0 0 0 0 0 0 0 0 0 0 0 0 0 0 0 0 0 0 0 0 0 0 0 0 0 0 0 0 0 0 0 0 0 0 0 0 0 0 0 0 0 0 0 0 0 0 0 0 0 0 0 0 0 0 0 0 0 0 0 0 0 0 0 0 0 0 0 0 0 0 0 0 0 0 0 0 0 0 0 0 0 0 0 0 0 0 0 0 0 0 0 0 0 0 0 0 0 0 0 0 0 0 0 0 0 0 0 0 0 0 0 0 0 0 0 0 0 0 0 0 0 0 0 0 0 0 0 0 0 0 0 0 0 0 0 0 0 0 0 0 0 0 0 0 0 0 0 0 0 0 0 0 0 0 0 0 0 0 0 0 0 0 0 0 0 0 0 0 0 0 0 0 0 0 0 0 0 0 0 0 0 0 0 0 0 0 0 0 0 0 0 0 0 0 0 0 0 0 0 0 0 0 0 0 0 0 0 0 0 0 0 0 0 0 0 0 0 0 0 0 0 0 0 0 0 0 0 0 0 0 0 0 0 0 0 0 0 0 0 0 0 0 0 0 0 0 0 0 0 0 0 0 0 0 0 0 0 0 0 0 0 0 0 0 0 0 0 0 0 0 0 0 0 0 0 0 0 0 0 0 0 0 0 0 0 0 0 0 0 0 0 0 0 0 0 0 0 0 0 0 0 0 0 0 0 0 0 0 0 0 0 0 0 0 0 0 0 0 0 0 0 0 0 0 0 0 0 0 0 0 0 0 0 0 0 0 0 0 0 0 0 0 0 0 0 0 0 0 0 0 0 0 0 0 0 0 0 0 0 0 0 0 0 0 0 0 0 0 0 0 0 0 0 0 0 0 0 0 0 0 0 0 0 0 0 0 0 0 0 0 0 0 0 0 0 0 0 0 0 0 0 0 0 0 0 0 0 0 0 0 0 0 0 0 0 0 0 0 0 0 0 0 0 0 0 0 0 0 0 0 0 0 0 0 0 0 0 0 0 0 0 0 0 0 0 0 0 0 0 0 0 0 0 0 0 0 0 0 0 0 0 0 0 0 0 0 0 0 0 0 0 0 0 0 0 0 0 0 0 0 0 0 0 0 0 0 0 0 0 0 0 0 0 0 0 0 0 0 0 0 0 0 0 0 0 0 0 0 0 0 0 0 0 0 0 0 0 0 0 0 0 0 0 0 0 0 0 0 0 0 0 0 0 0 0 0 0 0 0 0 0 0 0 0 0 0 0 0 0 0 0 0 0 0 0 0 0 0 0 0 0 0 0 0 0 0 0 0 0 0 0 0 0 0 0 0 0 0 0 0 0 0 0 0 0 0 0 0 0 0 0 0 0 0 0 0 0 0 0 0 0 0 0 0 0 0 0 0 0 0 0 0 0 0 0 0 0 0 0 0 0 0 0 0 0 0 0 0 0 0 0 0 0 0 0 0 0 0 0 0 0 0 0 0 0 0 0 0 0 0 0 0 0 0 0 0 0 0 0 0 0 0 0 0 0 0 0 0 0 0 0 0 0 0 0 0 0 0 0 0 0 0 0 0 0 0 0 0 0 0 0 0 0 0 0 0 0 0 0 0 0 0 0 0 0 0 0 0 0 0 0 0 0 0 0 0 0 0 0 0 0 0 0 0 0 0 0 0 0 0 0 0 0 0 0 0 0 0 0 0 0 0 0 0 0 0 0 0 0 0 0 0 0 0 0 0 0 0 0 0 0 0 0 0 0 0 0 0 0 0 0 0 0 0 0 0 0 0 0 0 0 0 0 0 0 0 0 0 0 0 0 0 0 0 0 0 0 0 0 0 0 0 0 0 0 0 0 0 0 0 0 0 0 0 0 0 0 0 0 0 0 0 0 0 0 0 0 0 0 0 0 0 0 0 0 0 0 0 0 0 0 0 0 0 0 0 0 0 0 0 0 0 0 0 0 0 0 0 0 0 0 0 0 0 0 0 0 0 0 0 0 0 0 0 0 0 0 0 0 0 0 0 0 0 0 0 0 0 0 0 0 0 0 0 0 0 0 0 0 0 0 0 0 0 0 0 0 0 0 0 0 0 0 0 0 0 0 0 0 0 0 0 0 0 0 0 0 0 0 0 0 0 0 0 0 0 0 0 0 0 0 0 0 0 0 0 0 0 0 0 0 0 0 0 0 0 0 0 0 0 0 0 0 0 0 0 0 0 0 0 0 0 0 0 0 0 0 0 0 0 0 0 0 0 0 0 0 0 0 0 0 0 0 0 0 0 0 0 0 0 0 0 0 0 0 0 0 0 0 0 0 0 0 0 0 0 0 0 0 0 0 0 0 0 0 0 0 0 0 0 0 0 0 0 0 0 0 0 0 0 0 0 0 0 0 0 0 0 0 0 0 0 0 0 0 0 0 0 0 0 0 0 0 0 0 0 0 0 0 0 0 0 0 0 0 0 0 0 0 0 0 0 0 0 0 0 0 0 0 0 0 0 0 0 0 0 0 0 0 0 0 0 0 0 0 0 0 0 0 0 0 0 0 0 0 0 0 0 0 0 0 0 0 0 0 0 0 0 0 0 0 0 0 0 0 0 0 0 0 0 0 0 0 0 0 0 0 0 0 0 0 0 0 0 0 0 0 0 0 0 0 0 0 0 0 0 0 0 0 0 0 0 0 0 0 0 0 0 0 0 0 0 0 0 0 0 0 0 0 0 0 0 0 0 0 0 0 0 0 0 0 0 0 0 0 0 0 0 0 0 0 0 0 0 0 0 0 0 0 0 0 0 0 0 0 0 0 0 0 0 0 0 0 0 0 0 0 0 0 0 0 0 0 0 0 0 0 0 0 0 0 0 0 0 0 0 0 0 0 0 0 0 0 0 0 0 0 0 0 0 0 0 0 0 0 0 0 0 0 0 0 0 0 0 0 0 0 0 0 0 0 0 0 0 0 0 0 0 0 0 0 0 0 0 0 0 0 0 0 0 0 0 0 0 0 0 0 0 0 0 0 0 0 0 0 0 0 0 0 0 0 0 0 0 0 0 0 0 0 0 0 0 0 0 0 0 0 0 0 0 0 0 0 0 0 0 0 0 0 0 0 0 0 0 0 0 0 0 0 0 0 0 0 0 0 0 0 0 0 0 0 0 0 0 0 0 0 0 0 0 0 0 0 0 0 0 0 0 0 0 0 0 0 0 0 0 0 0 0 0 0 0 0 0 0 0 0 0 0 0 0 0 0 0 0 0 0 0 0 0 0 0 0 0 0 0 0 0 0 0 0 0 0 0 0 0 0 0 0 0 0 0 0 0 0 0 0 0 0 0 0 0 0 0 0 0 0 0 0 0 0 0 0 0 0 0 0 0 0 0 0 0 0 0 0 0 0 0 0 0 0 0 0 0 0 0 0 0 0 0 0 0 0 0 0 0 0 0 0 0 0 0 0 0 0 0 0 0 0 0 0 0 0 0 0 0 0 0 0 0 0 0 0 0 0 0 0 0 0 0 0 0 0 0 0 0 0 0 0 0 0 0 0 0 0 0 0 0 0 0 0 0 0 0 0 0 0 0 0 0 0 0 0 0 0 0 0 0 0 0 0 0 0 0 0 0 0 0 0 0 0 0 0 0 0 0 0 0 0 0 0 0 0 0 0 0 0 0 0 0 0 0 0 0 0 0 0 0 0 0 0 0 0 0 0 0 0 0 0 0 0 0 0 0 0 0 0 0 0 0 0 0 0 0 0 0 0 0 0 0 0 0 0 0 0 0 0 0 0 0 0 0 0 0 0 0 0 0 0 0 0 0 0 0 0 0 0 0 0 0 0 0 0 0 0 0 0 0 0 0 0 0 0 0 0 0 0 0 0 0 0 0 0 0 0 0 0 0 0 0 0 0 0 0 0 0 0 0 0 0 0 0 0 1 0 0 0 0 0 0 0 0 0 0 0 0 0 0 0 0 0 0 0 0 0 0 0 0 0 2 0 0 0 0 0 0 0 0 0 0 0 0 0 0 0 0 0 0 0 0 0 0 0 0 0 1 0 0 0 0 0 0 0 0 0 0 0 0 0 0 0 0 0 0 0 0 0 0 0 0 0 0 0 0 0 0 0 0 0 0 0 0 0 0 0 0 0 0 0 0 0 0 0 0 0 0 0 0 0 0 0 0 0 0 0 0 0 0 0 0 0 0 0 0 0 0 0 0 0 0 0 0 0 0 0 0 0 0 0 0 0 0 0 0 0 0 0 0 0 0 0 0 0 0 0 0 0 0 0 0 0 0 0 0 0 0 0 0 0 0 0 0 0 0 0 0 0 0 0 0 0 0 0 0 0 0 0 0 0 0 0 0 0 0 0 0 0 0 0 0 0 0 0 0 0 0 0 0 0 0 0 0 0 0 0 0 0 0 0 0 0 0 0 0 0 0 0 0 0 0 0 0 0 0 0 0 0 0 0 0 0 0 0 0 0 0 0 0 0 0 0 0 0 0 0 0 0 0 0 0 0 0 0 0 0 0 0 0 0 0 0 0 0 0 0 0 0 0 0 0 0 0 0 0 0 0 0 0 0 0 0 0 0 0 0 0 0 0 0 0 0 0 0 0 0 0 0 0 0 0 0 0 0 0 0 0 0 0 0 0 0 0 0 0 0 0 0 0 0 0 0 0 0 0 0 0 0 0 0 0 0 0 0 0 0 0 0 0 0 0 0 0 0 0 0 0 0 0 0 0 0 0 0 0 0 0 0 0 0 0 0 0 0 0 0 0 0 0 0 0 0 0 0 0 0 0 0 0 0 0 0 0 0 0 0 0 0 0 0 0 0 0 0 0 0 0 0 0 0 0 0 0 0 0 0 0 0 0 0 0 0 0 0 0 0 0 0 0 0 0 0 0 0 0 0 0 0 0 0 0 0 0 0 0 0 0 0 0 0 0 0 0 0 0 0 0 0 0 0 0 0 0 0 0 0 0 0 0 0 0 0 0 0 0 0 0 0 0 0 0 0 0 0 0 0 0 0 0 0 0 0 0 0 0 0 0 0 0 0 0 0 0 0 0 0 0 0 0 0 0 0 0 0 0 0 0 0 0 0 0 0 0 0 0 0 0 0 0 0 0 0 0 0 0 0 0 0 0 0 0 0 0 0 0 0 0 0 0 0 0 0 0 0 0 0 0 0 0 0 0 0 0 0 0 0 0 0 0 0 0 0 0 0 0 0 1 0 0 0 0 0 0 0 0 0 0 0 0 0 0 0 0 0 0 0 0 0 0 0 0 0 1 0 0 0 0 0 0 0 0 0 0 0 0 0 0 0 0 0 0 0 0 0 0 0 0 0 1 0 0 0 0 0 0 0 0 0 0 0 0 0 0 0 0 0 0 0 0 0 0 0 0 1 4 0 0 0 0 0 0 0 0 0 0 0 0 0 0 0 0 0 0 0 0 0 0 0 0 1 8 0 0 0 0 0 0 0 0 0 0 0 0 0 0 0 0 0 0 0 0 0 0 0 0 1 15 0 0 0 0 0 0 0 0 0 0 0 0 0 0 0 0 0 0 0 0 0 0 0 0 1 11 0 0 0 0 0 0 0 0 0 0 0 0 0 0 0 0 0 0 0 0 0 0 0 0 1 2 0 0 0 0 0 0 0 0 0 0 0 0 0 0 0 0 0 0 0 0 0 0 0 0 0 1 0 0 0 0 0 0 0 0 0 0 0 0 0 0 0 0 0 0 0 0 0 0 0 0 0 0 0 0 0 0 0 0 0 0 0 0 0 0 0 0 0 0 0 0 0 0 0 0 0 0 0 0 0 0 0 0 0 0 0 0 0 0 0 0 0 0 0 0 0 0 0 0 0 0 0 0 0 0 0 0 0 0 0 0 0 0 0 0 0 0 0 0 0 0 0 0 0 0 0 0 0 0 0 0 0 0 0 0 0 0 0 0 0 0 0 0 0 0 0 0 0 0 0 0 0 0 0 0 0 0 0 0 0 0 0 0 0 0 0 0 0 0 0 0 0 0 0 0 0 0 0 0 0 0 0 0 0 0 0 0 0 0 0 0 0 0 0 0 0 0 0 0 0 0 0 0 0 0 0 0 0 0 0 0 0 0 0 0 0 0 0 0 0 0 0 0 0 0 0 0 0 0 0 0 0 0 0 0 0 0 0 0 0 0 0 0 0 0 0 0 0 0 0 0 0 0 0 0 0 0 0 0 0 0 0 0 0 0 0 0 0 0 0 0 0 0 0 0 0 0 0 0 0 0 0 0 0 0 0 0 0 0 0 0 0 0 0 0 0 0 0 0 0 0 0 0 0 0 0 0 0 0 0 0 0 0 0 0 0 0 0 0 0 0 0 0 0 0 0 0 0 0 0 0 0 0 0 0 0 0 0 0 0 0 0 0 0 0 0 0 0 0 0 0 0 0 0 0 0 0 0 0 0 0 0 0 0 0 0 0 0 0 0 0 0 0 0 0 0 0 0 0 0 0 0 0 0 0 0 0 0 0 0 0 0 0 0 0 0 0 0 0 0 0 0 0 0 0 0 0 0 0 0 0 0 0 0 0 0 0 0 0 0 0 0 0 0 0 0 0 0 0 0 0 0 0 0 0 0 0 0 0 0 0 0 0 0 0 0 0 0 0 0 0 0 0 0 0 0 0 0 0 0 0 0 0 0 0 0 0 1 2 0 0 0 0 0 0 0 0 0 0 0 0 0 0 0 0 0 0 0 0 0 0 0 0 3 6 0 0 0 0 0 0 0 0 0 0 0 0 0 0 0 0 0 0 0 0 0 0 0 0 4 8 0 0 0 0 0 0 0 0 0 0 0 0 0 0 0 0 0 0 0 0 0 1 1 1 3 10 0 0 0 0 0 0 0 0 0 0 0 0 0 0 0 0 0 0 0 0 0 2 3 4 6 16 0 0 0 0 0 0 0 0 0 0 0 0 0 0 0 0 0 0 0 0 0 1 3 5 9 29 0 0 0 0 0 0 0 0 0 0 0 0 0 0 0 0 0 0 0 0 0 0 1 2 8 53 0 0 0 0 0 0 0 0 0 0 0 0 0 0 0 0 0 0 0 0 0 0 0 0 7 50 0 0 0 0 0 0 0 0 0 0 0 0 0 0 0 0 0 0 0 0 0 0 0 0 5 21 0 0 0 0 0 0 0 0 0 0 0 0 0 0 0 0 0 0 0 0 0 0 0 0 2 5 0 0 0 0 0 0 0 0 0 0 0 0 0 0 0 0 0 0 0 0 0 0 0 0 0 0 0 0 0 0 0 0 0 0 0 0 0 0 0 0 0 0 0 0 0 0 0 0 0 0 0 0 0 0 0 0 0 0 0 0 0 0 0 0 0 0 0 0 0 0 0 0 0 0 0 0 0 0 0 0 0 0 0 0 0 0 0 0 0 0 0 0 0 0 0 0 0 0 0 0 0 0 0 0 0 0 0 0 0 0 0 0 0 0 0 0 0 0 0 0 0 0 0 0 0 0 0 0 0 0 0 0 0 0 0 0 0 0 0 0 0 0 0 0 0 0 0 0 0 0 0 0 0 0 0 0 0 0 0 0 0 0 0 0 0 0 0 0 0 0 0 0 0 0 0 0 0 0 0 0 0 0 0 0 0 0 0 0 0 0 0 0 0 0 0 0 0 0 0 0 0 0 0 0 0 0 0 0 0 0 0 0 0 0 0 0 0 0 0 0 0 0 0 0 0 0 0 0 0 0 0 0 0 0 0 0 0 0 0 0 0 0 0 0 0 0 0 0 0 0 0 0 0 0 0 0 0 0 0 0 0 0 0 0 0 0 0 0 0 0 0 0 0 0 0 0 0 0 0 0 0 0 0 0 0 0 0 0 0 0 0 0 0 0 0 0 0 0 0 0 0 0 0 0 0 0 0 0 0 0 0 0 0 0 0 0 0 0 0 0 0 0 0 0 0 0 0 0 0 0 0 0 0 0 0 0 0 0 0 0 0 0 0 0 0 0 0 0 0 0 0 0 0 0 0 0 0 0 0 0 0 0 0 0 0 0 0 0 0 0 0 0 0 0 0 0 0 0 0 0 0 0 0 0 0 0 0 0 0 0 0 0 0 0 0 0 0 0 0 0 0 0 0 0 0 0 0 0 0 0 0 0 0 0 0 1 0 0 0 0 0 0 0 0 0 0 0 0 0 0 0 0 0 0 0 0 0 0 0 0 4 10 0 0 0 0 0 0 0 0 0 0 0 0 0 0 0 0 0 0 0 0 0 0 0 1 14 25 0 0 0 0 0 0 0 0 0 0 0 0 0 0 0 0 0 0 0 0 0 0 1 3 16 30 0 0 0 0 0 0 0 0 0 0 0 0 0 0 0 0 0 0 0 0 0 8 12 8 11 31 0 0 0 0 0 0 0 0 0 0 0 0 0 0 0 0 0 0 0 0 2 17 23 16 33 81 0 0 0 0 0 0 0 0 0 0 0 0 0 0 0 0 0 0 0 0 2 14 19 24 74 145 0 0 0 0 0 0 0 0 0 0 0 0 0 0 0 0 0 0 0 0 0 4 7 18 77 169 0 0 0 0 0 0 0 0 0 0 0 0 0 0 0 0 0 0 0 0 0 0 0 5 53 150 0 0 0 0 0 0 0 0 0 0 0 0 0 0 0 0 0 0 0 0 0 0 0 2 31 92 0 0 0 0 0 0 0 0 0 0 0 0 0 0 0 0 0 0 0 0 0 0 0 0 8 29 0 0 0 0 0 0 0 0 0 0 0 0 0 0 0 0 0 0 0 0 0 0 0 0 0 0 0 0 0 0 0 0 0 0 0 0 0 0 0 0 0 0 0 0 0 0 0 0 0 0 0 0 0 0 0 0 0 0 0 0 0 0 0 0 0 0 0 0 0 0 0 0 0 0 0 0 0 0 0 0 0 0 0 0 0 0 0 0 0 0 0 0 0 0 0 0 0 0 0 0 0 0 0 0 0 0 0 0 0 0 0 0 0 0 0 0 0 0 0 0 0 0 0 0 0 0 0 0 0 0 0 0 0 0 0 0 0 0 0 0 0 0 0 0 0 0 0 0 0 0 0 0 0 0 0 0 0 0 0 0 0 0 0 0 0 0 0 0 0 0 0 0 0 0 0 0 0 0 0 0 0 0 0 0 0 0 0 0 0 0 0 0 0 0 0 0 0 0 0 0 0 0 0 0 0 0 0 0 0 0 0 0 0 0 0 0 0 0 0 0 0 0 0 0 0 0 0 0 0 0 0 0 0 0 0 0 0 0 0 0 0 0 0 0 0 0 0 0 0 0 0 0 0 0 0 0 0 0 0 0 0 0 0 0 0 0 0 0 0 0 0 0 0 0 0 0 0 0 0 0 0 0 0 0 0 0 0 0 0 0 0 0 0 0 0 0 0 0 0 0 0 0 0 0 0 0 0 0 0 0 0 0 0 0 0 0 0 0 0 0 0 0 0 0 0 0 0 0 0 0 0 0 0 0 0 0 0 0 0 0 0 0 0 0 0 0 0 0 0 0 0 0 0 0 0 0 0 0 0 0 0 0 0 0 0 0 0 0 0 0 0 0 0 0 0 0 0 0 0 0 0 0 0 0 0 0 0 0 0 0 0 0 0 0 0 0 0 0 0 0 0 0 0 0 0 0 0 0 0 0 0 0 0 0 0 2 0 0 0 0 0 0 0 0 0 0 0 0 0 0 0 0 0 0 0 0 0 0 0 1 8 19 0 0 0 0 0 0 0 0 0 0 0 0 0 0 0 0 0 0 0 0 0 0 1 3 22 43 0 0 0 0 0 0 0 0 0 0 0 0 0 0 0 0 0 0 0 0 0 2 9 13 27 50 0 0 0 0 0 0 0 0 0 0 0 0 0 0 0 0 0 0 0 0 1 19 39 32 26 52 0 0 0 0 0 0 0 0 0 0 0 0 0 0 0 0 0 0 0 0 7 42 59 40 62 138 0 0 0 0 0 0 0 0 0 0 0 0 0 0 0 0 0 0 0 0 8 38 48 50 133 214 0 0 0 0 0 0 0 0 0 0 0 0 0 0 0 0 0 0 0 0 2 13 22 64 172 232 0 0 0 0 0 0 0 0 0 0 0 0 0 0 0 0 0 0 0 0 0 1 3 58 171 226 0 0 0 0 0 0 0 0 0 0 0 0 0 0 0 0 0 0 0 0 0 0 0 30 127 193 0 0 0 0 0 0 0 0 0 0 0 0 0 0 0 0 0 0 0 0 0 0 0 4 47 99 0 0 0 0 0 0 0 0 0 0 0 0 0 0 0 0 0 0 0 0 0 0 0 0 0 0 0 0 0 0 0 0 0 0 0 0 0 0 0 0 0 0 0 0 0 0 0 0 0 0 0 0 0 0 0 0 0 0 0 0 0 0 0 0 0 0 0 0 0 0 0 0 0 0 0 0 0 0 0 0 0 0 0 0 0 0 0 0 0 0 0 0 0 0 0 0 0 0 0 0 0 0 0 0 0 0 0 0 0 0 0 0 0 0 0 0 0 0 0 0 0 0 0 0 0 0 0 0 0 0 0 0 0 0 0 0 0 0 0 0 0 0 0 0 0 0 0 0 0 0 0 0 0 0 0 0 0 0 0 0 0 0 0 0 0 0 0 0 0 0 0 0 0 0 0 0 0 0 0 0 0 0 0 0 0 0 0 0 0 0 0 0 0 0 0 0 0 0 0 0 0 0 0 0 0 0 0 0 0 0 0 0 0 0 0 0 0 0 0 0 0 0 0 0 0 0 0 0 0 0 0 0 0 0 0 0 0 0 0 0 0 0 0 0 0 0 0 0 0 0 0 0 0 0 0 0 0 0 0 0 0 0 0 0 0 0 0 0 0 0 0 0 0 0 0 0 0 0 0 0 0 0 0 0 0 0 0 0 0 0 0 0 0 0 0 0 0 0 0 0 0 0 0 0 0 0 0 0 0 0 0 0 0 0 0 0 0 0 0 0 0 0 0 0 0 0 0 0 0 0 0 0 0 0 0 0 0 0 0 0 0 0 0 0 0 0 0 0 0 0 0 0 0 0 0 0 0 0 0 0 0 0 0 0 0 0 0 0 0 0 0 0 0 0 0 0 0 0 0 0 0 0 0 0 0 0 0 0 0 0 0 0 0 0 0 0 0 0 0 0 0 0 0 0 0 0 0 0 0 0 0 0 0 0 1 2 0 0 0 0 0 0 0 0 0 0 0 0 0 0 0 0 0 0 0 0 0 0 1 3 8 16 0 0 0 0 0 0 0 0 0 0 0 0 0 0 0 0 0 0 0 0 0 2 5 8 22 40 0 0 0 0 0 0 0 0 0 0 0 0 0 0 0 0 0 0 0 0 0 8 27 33 37 54 0 0 0 0 0 0 0 0 0 0 0 0 0 0 0 0 0 0 0 0 2 35 73 67 49 62 0 0 0 0 0 0 0 0 0 0 0 0 0 0 0 0 0 0 0 0 20 72 92 69 73 135 0 0 0 0 0 0 0 0 0 0 0 0 0 0 0 0 0 0 0 1 25 65 73 76 143 215 0 0 0 0 0 0 0 0 0 0 0 0 0 0 0 0 0 0 0 0 7 24 43 116 205 239 0 0 0 0 0 0 0 0 0 0 0 0 0 0 0 0 0 0 0 0 0 1 15 103 205 234 0 0 0 0 0 0 0 0 0 0 0 0 0 0 0 0 0 0 0 0 0 0 1 36 144 201 0 0 0 0 0 0 0 0 0 0 0 0 0 0 0 0 0 0 0 0 0 0 0 4 54 111 0 0 0 0 0 0 0 0 0 0 0 0 0 0 0 0 0 0 0 0 0 0 0 0 0 0 0 0 0 0 0 0 0 0 0 0 0 0 0 0 0 0 0 0 0 0 0 0 0 0 0 0 0 0 0 0 0 0 0 0 0 0 0 0 0 0 0 0 0 0 0 0 0 0 0 0 0 0 0 0 0 0 0 0 0 0 0 0 0 0 0 0 0 0 0 0 0 0 0 0 0 0 0 0 0 0 0 0 0 0 0 0 0 0 0 0 0 0 0 0 0 0 0 0 0 0 0 0 0 0 0 0 0 0 0 0 0 0 0 0 0 0 0 0 0 0 0 0 0 0 0 0 0 0 0 0 0 0 0 0 0 0 0 0 0 0 0 0 0 0 0 0 0 0 0 0 0 0 0 0 0 0 0 0 0 0 0 0 0 0 0 0 0 0 0 0 0 0 0 0 0 0 0 0 0 0 0 0 0 0 0 0 0 0 0 0 0 0 0 0 0 0 0 0 0 0 0 0 0 0 0 0 0 0 0 0 0 0 0 0 0 0 0 0 0 0 0 0 0 0 0 0 0 0 0 0 0 0 0 0 0 0 0 0 0 0 0 0 0 0 0 0 0 0 0 0 0 0 0 0 0 0 0 0 0 0 0 0 0 0 0 0 0 0 0 0 0 0 0 0 0 0 0 0 0 0 0 0 0 0 0 0 0 0 0 0 0 0 0 0 0 0 0 0 0 0 0 0 0 0 0 0 0 0 0 0 0 0 0 0 0 0 0 0 0 0 0 0 0 0 0 0 0 0 0 0 0 0 0 0 0 0 0 0 0 0 0 0 0 0 0 0 0 0 0 0 0 0 0 0 0 0 0 0 0 0 0 0 0 0 0 0 0 0 0 0 0 0 0 0 0 0 0 0 0 0 0 0 0 0 0 0 0 0 1 1 0 0 0 0 0 0 0 0 0 0 0 0 0 0 0 0 0 0 0 0 0 0 2 4 6 7 0 0 0 0 0 0 0 0 0 0 0 0 0 0 0 0 0 0 0 0 1 7 16 20 22 25 0 0 0 0 0 0 0 0 0 0 0 0 0 0 0 0 0 0 0 0 1 15 57 74 56 45 0 0 0 0 0 0 0 0 0 0 0 0 0 0 0 0 0 0 0 0 3 49 111 120 88 73 0 0 0 0 0 0 0 0 0 0 0 0 0 0 0 0 0 0 0 1 33 98 128 119 108 127 0 0 0 0 0 0 0 0 0 0 0 0 0 0 0 0 0 0 0 1 41 95 104 113 157 200 0 0 0 0 0 0 0 0 0 0 0 0 0 0 0 0 0 0 0 0 12 39 60 133 206 230 0 0 0 0 0 0 0 0 0 0 0 0 0 0 0 0 0 0 0 0 0 2 19 95 185 210 0 0 0 0 0 0 0 0 0 0 0 0 0 0 0 0 0 0 0 0 0 0 2 13 80 131 0 0 0 0 0 0 0 0 0 0 0 0 0 0 0 0 0 0 0 0 0 0 1 2 20 55 0 0 0 0 0 0 0 0 0 0 0 0 0 0 0 0 0 0 0 0 0 0 0 0 0 0 0 0 0 0 0 0 0 0 0 0 0 0 0 0 0 0 0 0 0 0 0 0 0 0 0 0 0 0 0 0 0 0 0 0 0 0 0 0 0 0 0 0 0 0 0 0 0 0 0 0 0 0 0 0 0 0 0 0 0 0 0 0 0 0 0 0 0 0 0 0 0 0 0 0 0 0 0 0 0 0 0 0 0 0 0 0 0 0 0 0 0 0 0 0 0 0 0 0 0 0 0 0 0 0 0 0 0 0 0 0 0 0 0 0 0 0 0 0 0 0 0 0 0 0 0 0 0 0 0 0 0 0 0 0 0 0 0 0 0 0 0 0 0 0 0 0 0 0 0 0 0 0 0 0 0 0 0 0 0 0 0 0 0 0 0 0 0 0 0 0 0 0 0 0 0 0 0 0 0 0 0 0 0 0 0 0 0 0 0 0 0 0 0 0 0 0 0 0 0 0 0 0 0 0 0 0 0 0 0 0 0 0 0 0 0 0 0 0 0 0 0 0 0 0 0 0 0 0 0 0 0 1 1 3 0 0 0 0 0 0 0 0 0 0 0 0 0 0 0 0 0 0 0 0 0 0 1 1 4 11 0 0 0 0 0 0 0 0 0 0 0 0 0 0 0 0 0 0 0 0 1 2 1 2 7 15 0 0 0 0 0 0 0 0 0 0 0 0 0 0 0 0 0 0 0 0 2 2 1 2 7 12 0 0 0 0 0 0 0 0 0 0 0 0 0 0 0 0 0 0 0 0 1 1 1 1 4 7 0 0 0 0 0 0 0 0 0 0 0 0 0 0 0 0 0 0 0 0 0 0 0 1 2 3 0 0 0 0 0 0 0 0 0 0 0 0 0 0 0 0 0 0 0 0 0 0 0 1 1 2 0 0 0 0 0 0 0 0 0 0 0 0 0 0 0 0 0 0 0 0 0 1 4 6 7 8 0 0 0 0 0 0 0 0 0 0 0 0 0 0 0 0 0 0 0 0 1 12 27 32 27 20 0 0 0 0 0 0 0 0 0 0 0 0 0 0 0 0 0 0 0 0 1 20 68 96 72 41 0 0 0 0 0 0 0 0 0 0 0 0 0 0 0 0 0 0 0 0 4 43 117 152 126 92 0 0 0 0 0 0 0 0 0 0 0 0 0 0 0 0 0 0 0 1 30 100 152 171 167 163 0 0 0 0 0 0 0 0 0 0 0 0 0 0 0 0 0 0 1 3 37 109 143 162 195 213 0 0 0 0 0 0 0 0 0 0 0 0 0 0 0 0 0 0 1 2 13 53 82 130 205 225 0 0 0 0 0 0 0 0 0 0 0 0 0 0 0 0 0 1 2 2 3 8 19 65 165 191 0 0 0 0 0 0 0 0 0 0 0 0 0 0 0 0 0 0 1 3 4 5 6 13 60 90 0 0 0 0 0 0 0 0 0 0 0 0 0 0 0 0 0 0 1 2 4 5 8 9 14 23 0 0 0 0 0 0 0 0 0 0 0 0 0 0 0 0 0 0 0 0 0 0 0 0 0 0 0 0 0 0 0 0 0 0 0 0 0 0 1 1 1 1 0 0 0 0 0 0 1 1 1 2 0 0 0 0 0 0 1 1 1 1 1 1 1 1 1 1 1 0 0 0 0 1 1 2 3 4 0 0 0 0 0 0 1 3 4 3 1 1 1 1 1 1 1 0 0 0 1 1 2 2 3 4 0 0 0 0 0 0 1 4 6 5 4 2 1 1 1 1 1 0 0 0 1 1 2 3 3 4 0 0 0 0 0 0 1 3 5 6 6 4 2 1 1 1 1 0 0 0 1 1 3 3 3 3 0 0 0 0 0 0 1 2 4 5 6 5 4 2 1 1 1 0 0 0 1 2 3 4 3 3 0 0 0 0 0 0 1 2 3 4 5 5 4 3 2 1 1 0 0 0 1 2 4 5 11 10 0 0 0 0 0 0 1 2 3 3 3 3 3 2 2 1 1 1 0 1 2 3 5 10 31 29 0 0 0 0 0 0 0 1 2 2 2 2 2 2 1 1 1 1 1 1 6 13 14 22 50 56 0 0 0 0 0 0 0 0 1 1 1 1 1 1 1 1 1 1 1 2 14 30 29 32 61 82 0 0 0 0 2 2 2 1 1 1 1 1 1 1 1 1 1 1 1 5 26 44 36 35 64 88 0 0 0 1 3 4 3 2 1 1 0 1 1 1 1 1 1 1 2 12 36 45 31 31 55 70 0 0 0 1 3 3 3 2 1 1 0 0 1 1 1 1 1 1 2 14 31 32 21 25 38 43 0 0 0 1 2 2 2 1 1 1 0 0 0 1 1 1 1 2 2 7 16 17 12 17 22 23 0 0 0 1 1 2 2 1 1 1 1 0 0 1 1 2 2 2 2 3 7 8 6 9 12 15 0 0 0 1 2 3 3 2 1 1 1 0 0 0 1 1 2 2 2 3 4 6 9 11 19 27 0 0 0 1 2 3 3 3 2 2 1 1 1 0 0 1 1 2 2 3 4 17 34 37 38 41 0 0 0 0 1 2 2 2 2 2 1 1 1 1 1 1 1 1 2 3 5 24 61 91 85 67 0 0 0 0 1 1 1 1 1 1 1 1 1 1 1 1 1 1 2 4 14 55 115 157 148 126 0 0 0 0 0 1 1 1 1 0 0 0 0 0 1 1 1 3 5 12 46 123 177 200 200 192 0 0 0 0 0 1 1 1 1 0 0 0 0 0 1 1 4 8 13 19 53 137 185 201 216 220 0 0 0 0 0 0 1 1 1 0 0 0 0 0 1 2 14 24 24 21 27 79 124 149 203 217 0 0 0 0 0 0 0 1 0 0 0 0 0 0 1 2 19 42 43 34 26 26 37 62 152 178 0 0 0 0 0 0 1 1 1 1 1 0 0 0 0 1 11 35 50 50 43 31 22 27 70 91 0 0 0 0 1 1 2 2 2 1 1 1 1 0 0 1 2 13 32 49 53 45 37 31 32 29 0 0 0 0 0 1 4 5 3 1 2 4 6 7 6 4 2 1 1 1 1 2 3 4 6 5 0 0 0 0 1 7 16 19 15 11 12 17 23 26 23 16 10 6 4 4 6 7 9 13 17 17 0 0 0 0 4 18 35 40 35 26 22 24 29 33 31 24 16 10 6 6 8 11 12 15 21 26 0 0 0 0 6 23 41 50 48 39 28 22 22 24 23 19 15 10 7 6 7 11 16 17 18 24 0 0 0 0 5 21 39 50 52 46 35 25 19 17 16 14 11 8 5 5 9 16 22 21 16 19 0 0 0 0 5 19 34 45 50 48 41 31 23 16 13 10 8 6 4 6 13 20 22 21 18 16 0 0 0 1 6 19 33 44 48 47 44 36 26 17 11 8 7 5 5 8 15 19 19 22 25 22 0 0 0 0 5 17 31 43 45 43 43 38 26 16 11 8 6 5 5 10 16 22 27 44 79 71 0 0 0 0 2 8 21 33 36 35 35 34 25 15 10 8 7 6 6 11 25 42 57 91 139 124 0 0 0 0 1 4 11 19 23 25 26 25 20 13 9 8 7 6 7 16 47 82 102 129 161 151 0 0 1 5 13 18 19 18 15 15 17 17 14 10 8 9 9 8 8 23 68 112 128 140 161 168 0 1 7 23 39 43 38 27 16 10 10 11 10 8 8 12 17 15 13 31 85 124 126 131 153 165 0 3 16 38 52 53 44 32 20 11 7 7 8 7 9 21 32 30 29 57 102 119 105 110 132 136 0 5 20 37 46 45 38 28 20 12 7 5 6 7 12 28 44 44 44 72 99 94 77 84 100 98 0 7 20 32 36 34 29 22 17 12 7 5 5 8 15 30 43 43 42 56 70 63 51 57 69 80 2 9 21 29 32 29 24 19 15 11 8 5 4 8 17 27 33 34 32 37 42 38 31 34 47 73 4 13 27 34 36 32 27 22 16 11 8 5 5 7 15 23 26 26 27 29 28 26 28 31 48 82 3 10 22 31 35 32 27 23 20 15 9 6 5 6 10 17 22 22 24 30 31 36 52 58 66 96 0 2 9 21 29 28 22 18 17 15 11 7 5 5 7 11 16 18 24 35 42 55 79 104 111 125 0 0 5 18 30 30 22 15 11 11 9 7 5 5 6 8 12 16 24 37 50 87 135 169 170 167 0 0 4 15 26 29 23 16 11 8 6 6 5 5 7 10 15 22 31 42 75 148 196 213 211 204 0 0 3 11 20 25 22 15 10 7 5 4 5 12 22 27 40 52 53 51 77 161 207 216 219 217 0 0 2 6 13 20 20 14 9 6 5 5 6 14 28 50 93 112 94 66 54 105 164 180 196 203 0 0 0 2 7 15 17 14 10 9 9 8 8 10 15 43 109 147 135 98 66 57 85 111 145 161 0 0 1 5 12 18 20 18 16 15 14 11 9 8 9 19 72 134 151 133 100 70 54 61 86 98 0 1 5 14 24 29 30 27 24 20 16 13 10 9 8 11 30 81 128 142 129 101 75 58 56 46 0 0 0 0 6 29 52 55 45 34 57 84 90 92 72 38 20 9 6 6 7 8 30 54 64 53 0 0 0 2 22 59 83 84 74 70 81 93 102 105 101 85 58 34 25 27 32 37 50 65 76 80 0 0 0 7 44 91 114 115 107 97 91 94 100 103 98 87 69 49 37 37 44 50 55 63 78 89 0 0 0 9 49 94 116 120 116 105 92 85 85 86 80 67 56 46 35 31 36 47 56 58 67 79 0 0 0 8 45 89 111 117 113 102 89 80 78 77 68 53 43 36 30 28 36 57 71 70 65 65 0 0 1 13 49 86 107 114 109 97 90 85 81 74 60 43 33 28 25 28 44 67 76 77 71 59 0 0 2 17 51 84 106 116 112 103 100 96 85 69 49 35 30 28 26 32 49 66 76 84 92 83 0 0 1 12 37 70 98 111 109 104 106 102 84 59 39 30 28 28 28 36 54 81 106 134 167 159 0 0 0 4 17 41 74 93 93 94 102 102 82 52 35 29 28 28 30 42 75 121 156 188 211 203 0 0 1 8 21 38 61 76 74 76 89 92 76 49 35 35 35 31 35 60 110 159 189 208 218 213 0 3 18 45 68 79 82 76 61 55 65 72 62 44 40 54 61 51 50 82 132 175 197 208 214 213 2 16 53 90 109 113 102 79 54 40 42 50 48 39 49 83 102 90 78 97 141 174 187 198 205 205 8 33 77 107 118 114 98 75 54 38 32 36 39 37 60 107 132 124 110 123 149 162 170 183 190 186 18 45 84 104 108 99 84 74 64 46 30 27 30 37 67 117 143 138 127 135 144 141 148 161 168 174 26 52 84 97 97 85 75 72 67 52 34 23 24 39 73 112 133 130 121 124 128 125 127 129 146 179 38 59 86 96 94 82 69 64 61 50 34 24 24 43 74 98 109 108 104 105 107 106 99 93 129 180 50 69 90 97 96 83 67 60 57 49 35 26 26 41 64 80 86 88 89 90 85 81 78 74 119 180 38 54 76 88 91 81 65 59 60 54 40 29 27 36 52 66 73 75 80 85 83 81 86 91 121 180 11 22 51 78 89 82 63 52 55 56 46 32 26 29 42 59 66 68 74 86 93 98 107 131 152 185 1 11 44 78 94 88 65 44 41 44 41 32 25 24 34 53 67 75 83 90 94 108 141 181 193 197 1 10 40 73 90 87 67 45 35 33 33 29 25 35 56 79 101 108 96 87 96 142 192 214 217 213 8 14 35 61 79 83 70 47 33 30 28 27 34 75 114 131 148 145 113 84 86 152 205 219 221 220 8 13 23 39 59 74 72 50 31 27 30 33 42 82 123 153 180 179 145 100 76 113 176 198 202 211 1 3 9 21 44 65 68 52 38 42 51 51 48 57 79 128 184 200 180 140 108 101 131 155 166 192 0 4 17 36 57 70 67 56 53 66 76 68 56 52 55 80 148 195 200 181 149 123 105 101 120 153 2 15 42 67 83 87 78 65 63 75 82 74 62 55 54 59 95 156 191 193 174 144 114 87 81 84 0 0 0 3 35 89 119 122 125 131 146 162 163 159 143 119 100 88 83 80 78 77 95 114 122 102 0 0 0 14 68 121 142 142 142 147 153 159 160 155 150 139 118 102 95 94 96 97 107 117 125 129 0 0 1 33 104 150 162 161 158 154 152 152 149 143 137 129 118 107 99 98 103 107 111 116 127 132 0 0 2 37 107 150 161 161 157 150 146 141 134 128 121 112 105 101 94 91 96 106 117 125 131 129 0 0 1 35 103 146 157 157 151 142 135 129 123 118 111 100 94 92 88 87 96 116 137 146 142 128 0 0 6 48 106 139 152 156 149 137 130 125 120 113 102 91 88 87 86 88 103 131 153 162 155 137 0 0 13 56 97 124 145 157 152 141 135 129 120 107 92 84 84 84 85 91 112 146 169 177 176 162 0 0 10 39 69 102 135 149 147 143 140 133 117 98 83 78 79 80 85 100 128 166 191 203 212 206 0 0 3 16 41 79 119 136 133 136 141 135 117 96 86 84 82 82 98 124 153 186 209 223 230 229 0 1 10 35 63 91 118 127 121 124 134 132 118 102 103 112 108 105 124 150 173 198 217 227 233 234 1 16 56 98 119 129 132 126 114 110 116 119 111 107 127 149 152 145 149 165 181 200 215 224 231 233 18 54 108 135 144 145 137 122 106 98 98 102 104 115 146 173 182 174 166 170 181 194 207 219 228 229 45 84 127 139 142 139 128 115 104 92 86 91 105 127 158 185 193 187 177 175 179 185 198 213 223 224 67 97 128 135 134 126 117 114 108 93 79 84 109 137 164 186 194 189 181 178 176 177 189 200 212 224 82 105 128 131 127 118 112 112 108 93 78 83 114 144 165 180 186 185 181 178 176 175 177 177 199 226 96 110 126 130 126 116 108 108 104 92 79 88 120 147 163 171 176 178 178 175 171 167 161 155 189 225 102 111 124 128 124 114 105 104 104 95 84 95 124 145 157 162 167 172 173 168 160 154 146 142 182 223 78 91 111 121 120 112 102 101 105 101 92 100 124 143 152 157 163 166 166 160 153 148 145 151 182 219 34 58 98 119 121 114 101 96 100 101 94 96 116 136 147 155 158 159 157 154 151 149 153 176 196 217 11 45 97 122 125 117 101 89 89 90 85 81 93 118 139 152 156 159 158 153 149 151 169 198 211 216 11 43 94 120 125 119 104 90 86 83 79 77 81 106 145 168 176 176 166 156 156 167 193 215 220 220 32 51 85 108 119 119 109 93 88 88 94 110 127 154 182 194 197 189 168 153 157 175 202 218 224 226 33 44 61 80 102 114 111 95 87 94 115 144 165 183 197 204 205 195 172 152 149 163 189 207 216 223 9 14 29 57 90 108 108 100 99 115 139 160 171 178 185 197 209 208 192 173 164 166 173 185 198 217 4 18 46 76 101 110 107 108 122 144 161 171 174 175 176 184 203 215 213 202 191 181 168 161 176 204 13 49 87 108 119 120 112 113 133 156 171 177 177 175 174 174 187 207 217 215 206 191 170 150 151 149 0 0 0 2 29 69 87 88 100 112 116 118 116 109 103 97 88 83 79 76 74 72 75 79 82 66 0 0 0 12 52 87 98 100 105 112 113 114 111 102 96 91 85 82 80 78 77 76 77 79 82 83 0 0 1 27 75 104 110 111 110 109 108 107 100 90 85 82 79 78 77 76 77 78 79 81 85 84 0 0 1 28 76 103 110 110 107 103 102 98 89 81 77 74 73 74 73 72 75 80 88 96 97 87 0 0 1 27 74 101 108 108 104 98 94 88 78 72 70 68 69 71 70 71 76 88 105 116 111 96 0 0 6 37 74 92 102 107 103 96 88 81 72 66 64 65 68 70 70 72 80 100 122 131 125 109 0 0 12 42 63 74 92 104 103 95 87 78 70 64 61 62 65 67 69 73 88 118 141 147 143 129 0 0 9 28 42 58 84 98 98 95 89 78 68 63 59 59 61 63 68 81 104 135 156 164 165 158 0 0 2 12 28 52 79 90 89 91 89 80 70 65 65 67 65 65 81 104 124 145 163 174 181 182 0 0 8 27 46 66 82 86 83 86 87 80 74 73 84 94 89 88 107 126 135 148 163 174 185 190 1 13 42 68 80 86 88 84 80 81 81 77 75 83 107 124 124 121 127 134 136 145 157 169 183 190 16 41 75 87 90 90 87 82 78 76 74 72 76 95 124 140 141 137 134 132 132 138 148 165 183 189 38 60 82 85 85 85 83 80 77 72 67 69 83 109 133 143 143 138 133 129 129 132 142 160 179 187 53 67 81 81 81 80 78 77 74 66 60 67 93 121 137 141 140 136 132 130 130 131 135 144 166 185 63 72 80 79 77 75 74 73 68 61 57 69 102 128 136 137 136 136 136 135 132 129 126 124 150 183 69 73 77 77 75 72 72 72 68 61 58 74 109 129 133 133 135 139 141 137 130 124 118 114 141 179 67 69 73 76 74 71 71 73 72 65 62 80 111 128 131 131 135 141 141 135 126 119 112 110 137 174 49 55 68 74 73 69 69 72 74 70 68 84 112 127 130 132 136 139 137 129 121 116 112 119 142 171 24 41 65 74 73 69 67 68 70 68 66 78 103 123 129 131 132 132 129 122 116 112 117 136 152 168 10 35 67 77 74 69 66 66 66 63 59 61 79 106 124 129 127 126 125 119 114 114 127 148 158 165 10 34 66 77 75 71 68 67 67 63 58 58 65 86 118 133 131 129 127 125 125 126 137 156 163 167 25 40 61 70 73 73 70 68 70 71 77 96 110 118 134 142 137 130 125 125 132 136 143 158 168 172 26 33 43 53 65 71 70 67 69 79 100 131 149 155 155 151 141 131 123 119 125 133 138 150 161 170 7 11 21 41 61 69 68 70 79 92 114 140 155 160 160 158 153 145 135 127 127 130 131 137 148 164 4 14 32 51 66 70 69 79 98 114 129 145 155 158 158 159 163 163 157 149 144 139 131 126 138 157 12 37 58 67 72 72 71 83 107 125 139 150 156 157 155 154 159 167 169 166 160 149 133 119 123 116 0 0 0 0 0 0 0 0 0 0 0 0 0 0 0 0 0 0 0 0 0 0 0 0 0 0 0 0 0 0 0 0 0 0 0 0 0 0 0 0 0 0 0 0 0 0 0 0 0 0 0 0 0 0 0 0 0 0 0 0 0 0 0 0 0 0 0 0 0 0 0 0 0 0 0 0 0 0 0 0 0 0 0 0 0 0 0 0 0 0 0 0 0 0 0 0 0 0 0 0 0 0 0 0 0 0 0 0 0 0 0 0 0 0 0 0 0 0 0 0 0 0 0 0 0 0 0 0 0 0 0 0 0 0 0 0 0 0 0 0 0 0 0 0 0 0 0 0 0 0 0 0 0 0 0 0 0 0 0 0 0 0 0 0 0 0 0 0 0 0 0 0 0 0 0 0 0 0 0 0 0 0 0 0 0 0 0 0 0 0 0 0 0 0 0 0 0 0 0 0 0 0 0 0 0 0 0 0 0 0 0 0 0 0 0 0 0 0 0 0 0 0 0 0 0 0 0 0 0 0 0 0 0 0 0 0 0 0 0 0 0 0 0 0 0 0 0 0 0 0 0 0 0 0 0 0 0 0 0 0 0 0 0 0 0 0 0 0 0 0 0 0 0 0 0 0 0 0 0 0 0 0 0 0 0 0 0 0 0 0 0 0 0 0 0 0 0 0 0 0 0 0 0 0 0 0 0 0 0 0 0 0 0 0 0 0 0 0 0 0 0 0 0 0 0 0 0 0 0 0 0 0 0 0 0 0 0 0 0 0 0 0 0 0 0 0 0 0 0 0 0 0 0 0 0 0 0 0 0 0 0 0 0 0 0 0 0 0 0 0 0 0 0 0 0 0 0 0 0 0 0 0 0 0 0 0 0 0 0 0 0 0 0 0 0 0 0 0 0 0 0 0 0 0 0 0 0 0 0 0 0 0 0 0 0 0 0 0 0 0 0 0 0 0 0 0 0 0 0 0 0 0 0 0 0 0 0 0 0 0 0 0 0 0 0 0 0 0 0 0 0 0 0 0 0 0 0 0 0 0 0 0 0 0 0 0 0 0 0 0 0 0 0 0 0 0 0 0 0 0 0 0 0 0 0 0 0 0 0 0 0 0 0 0 0 0 0 0 0 0 0 0 0 0 0 0 0 0 0 0 0 0 0 0 0 0 0 0 0 0 0 0 0 0 0 0 0 0 0 0 0 0 0 0 0 0 0 0 0 0 0 0 0 0 0 0 0 0 0 0 0 0 0 0 0 0 0 0 0 0 0 0 0 0 0 0 0 0 0 0 0 0 0 0 0 0 0 0 0 0 0 0 0 0 0 0 0 0 0 0 0 0 0 0 0 0 0 0 0 0 0 0 0 0 0 0 0 0 0 0 0 0 0 0 0 0 0 0 0 0 0 0 0 0 0 0 0 0 0 0 0 0 0 0 0 0 0 0 0 0 0 0 0 0 0 0 0 0 0 0 0 0 0 0 0 0 0 0 0 0 0 0 0 0 0 0 0 0 0 0 0 0 0 0 0 0 
</DataArray>
<DataArray Name="HRRPUV" NumberOfComponents="1" type="UInt8" format="ascii">