<?xml version="1.0"?>
<VTKFile type="PolyData" version="1.0" byte_order="LittleEndian" header_type="UInt64">
<PolyData>
<Piece NumberOfPoints="2956" NumberOfVerts="0" NumberOfLines="0" NumberOfPolys="0">
    <Points>
        <DataArray type="Float32" NumberOfComponents="3" format="ascii">
        16.8108 9.0756 0.6660 16.8734 8.7461 1.1168 16.7313 8.2521 1.7813 16.6934 8.3688 1.2544 15.4173 5.7233 5.2861 16.7017 8.1212 1.2250 16.4944 7.8533 1.6452 15.4368 5.3096 5.9121 15.5672 5.4420 5.7834 16.7591 8.2704 0.2305 16.1074 6.3546 3.3771 16.8444 8.0373 0.5957 16.9826 8.2009 0.1452 17.1003 7.9847 0.5099 16.9913 7.7197 1.0926 16.9048 7.9844 0.4535 17.0962 7.7367 1.0931 17.0135 6.6519 3.5774 16.3966 3.7326 6.2649 17.0240 7.1965 2.1993 17.3766 6.8967 3.1074 17.1756 6.9664 2.8651 16.8734 8.3311 1.6147 17.4031 5.6470 5.6204 16.8912 8.1351 1.3574 16.7914 9.0363 0.4949 16.8255 8.4513 1.2461 16.8065 8.5673 1.3249 16.8716 5.4486 5.6805 16.7730 9.1993 0.2710 16.6430 7.5521 2.1264 16.6939 7.8071 2.2363 16.6793 5.0114 5.7087 16.7105 8.7529 0.1042 16.4895 7.5184 2.1076 16.4345 7.3977 1.1766 15.4190 4.2491 4.5485 16.1808 6.2507 1.9755 16.5924 5.7460 3.7305 16.7319 7.9960 0.1499 16.7723 4.6438 4.1623 17.6184 6.9680 0.9114 17.2197 5.2907 3.2765 16.9685 6.1721 2.7152 17.2665 7.5825 0.2328 17.3177 7.3404 0.8008 17.5240 6.6431 2.4288 16.9504 7.3750 1.9015 17.2252 5.4451 5.0430 17.0425 7.6364 1.2195 17.1495 8.4800 0.7067 17.5779 6.5601 3.5538 17.1145 8.1200 2.4770 17.1536 8.4366 1.6209 17.3332 9.2090 0.5947 16.7849 8.9724 1.0881 17.1662 8.7531 1.5806 16.6092 9.0683 0.2171 17.5228 11.0793 3.6843 15.6091 10.7544 4.7660 16.2578 5.5137 5.5274 16.0494 4.5991 5.8804 16.2718 7.3372 3.0879 17.1664 10.9718 4.0407 17.5225 10.9895 3.6846 17.1950 11.5624 4.0121 16.3462 8.1711 1.4831 17.7381 11.1569 3.4690 17.5747 11.0760 3.6324 16.3627 8.1969 1.1024 16.3043 6.7531 3.7325 15.3670 11.3917 4.5239 17.6546 11.0488 3.5526 15.0222 9.9388 8.0981 17.2891 10.9647 3.9180 15.4232 8.3982 5.9753 17.5728 11.0065 3.6343 16.1750 11.3528 8.1644 17.1333 10.9058 4.0738 17.7252 11.2406 3.4819 17.3764 11.1391 3.8307 17.6475 11.0436 3.5596 16.3400 7.9961 1.4309 16.1580 5.9587 4.8021 17.6955 11.0813 3.5116 15.2374 8.5565 6.8737 17.2155 10.8791 3.9916 17.1074 11.0703 4.0997 15.1104 9.8777 4.0307 15.1267 12.2828 5.5728 17.7612 11.1685 3.4459 16.6280 11.2945 4.5791 15.0486 10.0000 3.2407 17.7057 11.2221 3.5014 17.2060 11.3843 4.0011 17.6803 11.3559 3.5268 16.4125 7.0677 3.5647 16.4192 7.3974 3.2589 16.7937 9.0580 0.0098 17.5367 10.9007 3.6704 15.2935 9.5549 5.9099 16.6504 8.2426 1.5186 15.4196 9.8015 4.6281 17.8806 11.3757 3.3265 17.7901 11.1019 3.4170 15.1258 14.4229 7.7667 16.2305 9.9973 3.3833 17.8571 11.2566 3.3500 17.0467 11.0188 4.1604 17.6410 11.2815 3.5661 16.8169 8.0921 2.3727 16.7926 8.2226 2.1599 15.4439 8.8872 4.3585 15.6471 10.6573 6.1676 15.9855 9.9218 3.6931 15.2728 10.2954 6.9179 15.2351 9.5251 5.3659 17.1818 11.4713 4.0253 16.8927 8.5460 0.9265 17.6819 11.3448 3.5252 17.8174 11.3149 3.3898 17.7122 11.2017 3.4949 17.4722 11.1692 3.7349 15.1925 9.0806 3.7448 16.2622 9.9991 3.4262 16.9587 9.1325 0.1945 16.9960 8.9847 0.4327 16.6112 7.9229 3.5414 17.4743 9.3615 0.4085 16.7288 7.1098 5.1664 17.8512 11.3062 3.3559 17.9094 11.0896 3.2977 17.5090 10.8543 3.6981 17.9737 11.3159 3.2334 17.6885 9.4295 0.5399 16.7164 7.7599 3.7530 17.0542 8.5143 2.5804 17.9234 11.2448 3.2837 15.4013 9.2701 4.2469 17.6447 11.1961 3.5625 17.5164 11.2326 3.6907 15.0299 9.9302 3.3824 15.4309 14.6334 7.6976 17.1098 8.3031 3.6395 17.4868 9.0817 1.3468 15.5985 9.8273 3.6654 17.5833 11.2025 3.6238 17.7428 11.0407 3.4643 17.9266 11.0323 3.2805 15.3532 9.3041 3.6677 17.0367 7.8936 4.1589 17.0467 8.1429 3.3687 17.4909 10.6438 3.7162 17.9320 11.3431 3.2751 17.6723 10.8220 3.5348 17.3855 11.4393 3.8216 15.7544 8.9092 4.1633 17.5003 10.7323 3.7068 18.0100 11.1932 3.1971 17.6309 11.1084 3.5762 17.8971 10.8468 3.3100 17.3328 8.6864 2.3185 17.7233 9.5707 0.2365 17.6472 9.4328 0.5438 17.6120 10.8084 3.5951 15.2650 10.0270 2.9726 17.6518 10.8522 3.5553 16.3021 9.4691 3.7285 17.5895 11.3176 3.6176 16.2130 9.7504 3.6916 17.6448 11.3236 3.5623 17.1318 7.6995 4.2261 17.0708 8.0819 3.3558 15.5909 9.8238 3.5480 17.9655 11.2385 3.2416 17.4537 10.6122 3.7534 15.1639 9.5097 4.3023 15.5216 9.3644 4.1400 18.2467 11.3443 2.9605 17.6995 9.3530 0.5749 17.3690 8.7645 1.8897 15.4408 10.0000 3.9395 17.6863 11.1113 3.5208 17.5078 9.1132 0.8463 17.0057 7.7724 3.7119 18.0414 11.2923 3.1657 17.2773 10.8063 3.9298 17.7842 11.2697 3.4229 17.9581 10.9758 3.2490 17.6189 10.9873 3.5882 18.1311 11.0741 3.0760 18.1267 11.2874 3.0804 16.9841 7.7678 3.3809 17.1432 7.1098 4.4799 18.2962 11.1825 2.9109 18.2303 11.2987 2.9768 15.4294 10.0000 4.0272 18.2366 11.0153 2.9705 17.9253 10.8922 3.2818 18.1056 10.9789 3.1015 17.9700 11.1123 3.2371 17.9572 11.0459 3.2499 17.9950 11.1219 3.2121 18.0493 11.1926 3.1578 17.4245 10.7130 3.7826 18.2960 11.2268 2.9111 18.0825 11.1215 3.1246 17.8720 11.3723 3.3351 17.5462 9.2321 0.7188 17.0545 8.3622 2.1448 17.6584 10.9309 3.5487 15.4221 8.2191 5.3243 17.9112 11.2370 3.2959 17.5631 11.1630 3.6440 17.2446 10.3725 3.9625 17.6322 11.0802 3.5749 17.2267 8.9984 0.5778 17.1302 8.7894 1.0196 17.1506 10.2971 4.0565 17.1278 10.2512 4.0793 17.5829 10.5133 3.6242 17.9872 11.1374 3.2199 18.3938 11.2556 2.8133 17.6048 10.9685 3.6023 15.8136 9.1968 3.8200 17.7076 10.8490 3.4995 18.1659 10.9823 3.0412 16.2032 9.9024 3.7006 17.9455 10.6433 3.2616 17.6029 10.8705 3.6042 17.7989 11.3693 3.4083 15.7958 9.6599 3.3729 17.4593 10.1635 3.7478 18.1513 11.2163 3.0558 18.2439 11.3592 2.9632 17.5426 10.8308 3.6645 17.4216 10.3029 3.7855 17.5360 9.1692 0.9488 17.1262 6.9149 3.3194 16.8041 10.0000 3.3336 17.6306 10.4171 3.5765 17.8587 10.6916 3.3484 18.3841 11.3393 2.8230 17.4083 10.5615 3.7988 18.2657 11.2775 2.9414 15.8497 8.9067 4.8744 17.6639 11.1634 3.5432 17.3695 10.9822 3.8376 18.2900 11.0951 2.9172 18.1781 10.9890 3.0290 18.1142 11.1806 3.0929 18.0957 10.7085 3.1114 17.2581 10.2883 3.9490 15.6672 9.2162 4.1182 16.8004 9.9920 2.9024 17.5646 9.2290 0.7515 17.4191 8.7110 1.8111 17.0303 4.8163 5.9575 16.5005 2.0191 7.6274 17.1485 5.2467 5.7095 18.0826 11.2858 3.1245 16.0088 9.4386 2.7259 18.0938 10.9152 3.1133 17.2132 10.1676 3.9939 17.6863 10.2199 3.5208 16.2043 9.9039 2.6843 17.2700 10.1175 3.9371 17.2521 11.5436 3.9550 16.1479 10.0000 2.7541 15.6756 7.9933 5.3486 17.2417 10.5201 3.9654 17.5907 8.8542 1.9610 18.0228 10.8759 3.1843 17.4122 10.4611 3.7949 16.8057 10.0000 3.1805 16.1285 9.5545 1.8964 17.9273 10.5963 3.2798 15.8200 9.5052 2.9537 18.3270 11.3248 2.8801 17.6860 10.5356 3.5211 15.9698 9.6338 2.5884 18.0882 10.8377 3.1189 18.2783 10.9420 2.9288 17.5124 11.0321 3.6947 17.7489 10.3462 3.4583 17.2986 10.4434 3.9085 18.0168 11.2164 3.1903 16.2473 10.1789 0.5262 17.4991 6.8164 4.0699 17.1693 7.5321 2.5742 17.0397 5.5443 5.0754 16.9544 6.4351 4.0873 17.1906 8.3798 2.0916 17.2592 8.3691 2.5541 16.0213 8.8111 2.9228 16.8049 10.0003 2.9630 16.3070 10.0062 1.5509 17.9803 10.4251 3.2269 18.3335 11.3422 2.8736 16.4621 9.5248 1.7704 17.4025 10.5555 3.8046 18.2571 11.1938 2.9500 17.8311 10.4443 3.3760 17.6013 9.2362 0.5732 17.6243 9.3677 0.2534 16.8534 10.0363 1.2047 15.8682 7.5998 4.7627 17.6569 10.6489 3.5502 17.7405 10.4121 3.4666 17.8154 10.3432 3.3917 17.6946 10.5392 3.5125 17.5534 10.3760 3.6537 16.0954 9.2690 1.4064 17.5623 10.8026 3.6448 17.1390 8.4361 1.4165 17.9761 11.2593 3.2310 17.7186 10.2228 3.4885 18.1081 11.3280 3.0990 15.5501 9.1914 1.1829 16.4987 9.8410 0.4722 17.9516 11.0946 3.2555 17.6395 10.6514 3.5677 17.4431 10.1529 3.7640 17.3946 9.0159 2.0680 17.4990 8.5109 2.9387 17.3914 10.8848 3.8157 15.7212 9.1023 1.3288 18.0227 11.3655 3.1845 17.9958 10.8260 3.2113 17.4110 10.1560 3.7961 18.1171 11.0935 3.0900 17.3020 10.1429 3.9051 15.4999 5.8910 5.3362 16.3354 9.5448 0.2660 17.6171 11.3675 3.5901 17.7842 11.3938 3.4229 18.1924 10.9025 3.0147 17.5196 8.8425 2.0574 17.5821 9.4230 0.0078 16.6338 3.3957 6.1562 17.3557 9.1089 1.6518 16.8137 10.0000 2.0287 18.0400 11.2790 3.1671 16.0971 9.4417 0.4165 15.3890 8.8737 1.1580 15.2275 7.4945 3.3032 16.3785 8.2589 2.6157 17.5889 10.1411 3.6182 16.2127 9.4745 0.1202 17.1215 10.2512 4.0856 17.4179 10.5181 3.7892 15.7015 7.9801 2.9557 16.2965 7.9690 3.1913 17.6423 8.9334 3.0905 17.5561 8.6005 2.6925 17.1661 7.6228 3.3002 15.3963 8.5006 1.7362 17.8951 10.8387 3.3121 17.2942 11.7476 3.9129 15.0287 8.4194 1.4573 17.9973 10.9859 3.2098 17.4737 11.2664 3.7335 18.0815 11.1047 3.1256 16.1276 7.4356 3.4668 17.9632 11.2679 3.2440 17.7932 6.3649 4.7639 15.0419 8.9792 8.1255 18.0013 10.8742 3.2058 16.5355 8.4651 1.7487 17.3645 10.9268 3.8426 17.8981 10.3108 3.3090 15.0492 7.5198 2.7978 16.2513 5.9233 5.2593 17.9900 10.6375 3.2171 17.7335 10.9143 3.4736 17.3860 8.7710 1.7801 17.3963 9.2879 0.6207 15.0771 7.2475 3.1736 17.7292 10.5939 3.4779 17.7331 10.1665 3.4740 15.3287 8.8571 0.3209 17.4479 10.2030 3.7592 16.2116 8.6596 0.5076 18.1131 11.3611 3.0940 17.7890 10.6140 3.4181 16.4300 6.6873 3.6696 16.2423 8.9690 0.0987 17.7948 10.0513 3.4123 16.6039 8.3147 1.4838 18.1759 11.0047 3.0313 17.5866 10.1857 3.6205 17.9971 10.9406 3.2100 17.1924 11.0605 4.0147 17.1634 9.1125 2.0640 17.2994 8.8688 2.0938 17.0625 9.4367 0.3515 17.9272 10.6091 3.2799 17.8827 11.0398 3.3244 17.3197 11.7787 3.8874 18.0576 11.0901 3.1495 17.4893 11.3791 3.7178 17.3813 10.9966 3.8258 18.2035 11.2969 3.0036 17.1666 9.0612 2.1924 17.2044 4.2476 5.8006 17.2420 9.3551 0.6518 17.1885 9.0138 2.1973 17.3152 10.9496 3.8919 17.9254 10.6210 3.2817 17.4650 11.3534 3.7421 15.6241 12.6139 4.7810 18.1145 11.3072 3.0926 18.2403 11.3770 2.9668 18.0429 11.1132 3.1642 17.5460 10.0611 3.6611 17.1612 8.8328 1.4027 16.4606 7.4166 2.0093 16.4575 3.5959 5.5677 17.6542 10.6096 3.5529 16.8921 6.7363 3.4164 18.1014 11.1153 3.1057 17.0511 8.8763 0.7530 17.4836 10.2704 3.7235 17.8996 10.5230 3.3075 16.3124 7.8837 1.8488 17.1941 10.8342 4.0130 18.1405 11.0901 3.0666 18.2176 10.8003 2.9895 16.8999 9.0627 0.3886 17.3155 8.9377 1.5121 17.5635 11.202
[...]
    <PointData>
        <DataArray type="Float32" Name="tag" format="ascii">
            131.0000 2191.0000 3271.0000 4643.0000 5655.0000 5703.0000 5815.0000 7575.0000 8095.0000 8263.0000 8603.0000 9027.0000 9963.0000 10311.0000 10611.0000 11427.0000 12211.0000 12283.0000 12343.0000 14215.0000 14587.0000 14763.0000 15139.0000 15847.0000 17007.0000 17567.0000 18383.0000 18851.0000 19307.0000 19547.0000 20847.0000 21071.0000 21271.0000 21671.0000 21911.0000 25151.0000 25915.0000 28435.0000 29691.0000 29719.0000 30607.0000 31915.0000 33571.0000 33583.0000 35715.0000 35779.0000 35963.0000 36935.0000 37327.0000 38399.0000 38523.0000 39383.0000 39535.0000 39655.0000 40963.0000 41567.0000 41895.0000 43467.0000 45999.0000 46351.0000 46743.0000 46911.0000 47311.0000 47647.0000 47759.0000 47951.0000 48551.0000 49099.0000 49311.0000 50003.0000 50311.0000 50907.0000 51099.0000 51175.0000 51227.0000 52543.0000 52943.0000 52967.0000 52999.0000 53111.0000 53127.0000 53135.0000 53595.0000 53999.0000 54291.0000 54559.0000 54611.0000 55023.0000 55051.0000 55155.0000 56195.0000 56287.0000 56315.0000 56615.0000 56635.0000 56811.0000 57103.0000 57143.0000 57815.0000 57919.0000 58319.0000 58779.0000 59755.0000 60003.0000 60099.0000 60211.0000 61563.0000 61971.0000 61991.0000 62019.0000 62743.0000 62903.0000 63215.0000 63275.0000 63359.0000 63687.0000 63787.0000 63803.0000 64907.0000 65103.0000 65203.0000 65247.0000 65435.0000 65483.0000 65519.0000 66087.0000 66115.0000 66411.0000 66419.0000 66647.0000 67019.0000 67387.0000 67539.0000 67571.0000 67715.0000 68339.0000 68411.0000 68695.0000 68751.0000 68819.0000 68879.0000 69051.0000 69355.0000 69699.0000 69831.0000 70591.0000 70619.0000 70723.0000 70919.0000 70923.0000 71051.0000 71123.0000 71799.0000 71883.0000 71903.0000 71971.0000 71983.0000 71991.0000 72191.0000 72451.0000 72555.0000 72603.0000 72763.0000 73019.0000 73427.0000 73595.0000 73887.0000 74039.0000 74043.0000 74051.0000 74107.0000 74351.0000 74511.0000 74907.0000 75027.0000 75227.0000 75247.0000 75251.0000 75451.0000 75567.0000 75655.0000 76479.0000 76779.0000 77043.0000 77535.0000 77975.0000 78063.0000 78263.0000 79119.0000 79131.0000 79271.0000 79667.0000 80363.0000 80383.0000 80511.0000 80919.0000 80951.0000 80971.0000 81051.0000 81239.0000 82135.0000 82175.0000 82191.0000 82315.0000 82351.0000 82415.0000 82563.0000 82791.0000 83547.0000 83687.0000 84147.0000 84163.0000 84363.0000 84387.0000 84407.0000 84471.0000 84771.0000 85191.0000 85591.0000 85607.0000 85751.0000 85787.0000 85871.0000 85975.0000 86123.0000 86139.0000 86199.0000 86259.0000 86271.0000 87259.0000 87347.0000 87467.0000 87583.0000 87739.0000 87839.0000 87887.0000 88047.0000 88111.0000 88135.0000 88927.0000 88947.0000 89007.0000 89011.0000 89015.0000 89047.0000 89111.0000 89139.0000 89227.0000 89291.0000 89427.0000 89443.0000 89535.0000 89647.0000 89663.0000 89723.0000 89855.0000 90123.0000 90131.0000 90271.0000 90407.0000 90815.0000 90851.0000 90863.0000 90883.0000 90919.0000 90987.0000 91119.0000 91135.0000 91455.0000 91523.0000 91535.0000 92379.0000 92591.0000 92603.0000 92607.0000 92699.0000 92787.0000 92843.0000 92879.0000 92883.0000 92995.0000 93055.0000 93071.0000 93107.0000 93111.0000 93151.0000 93335.0000 93351.0000 93523.0000 93655.0000 93675.0000 94219.0000 94235.0000 94371.0000 94447.0000 94555.0000 94611.0000 94795.0000 94819.0000 94827.0000 94835.0000 94895.0000 95083.0000 95887.0000 95959.0000 96315.0000 96355.0000 96403.0000 96483.0000 96495.0000 96779.0000 96891.0000 97079.0000 97103.0000 97983.0000 98219.0000 98267.0000 98479.0000 98523.0000 98707.0000 98771.0000 98803.0000 98839.0000 99179.0000 99855.0000 99883.0000 99891.0000 99967.0000 99983.0000 100043.0000 100055.0000 100151.0000 100163.0000 100179.0000 100247.0000 100379.0000 100459.0000 100975.0000 101011.0000 101167.0000 101227.0000 101463.0000 101607.0000 101643.0000 101667.0000 101687.0000 101827.0000 101835.0000 101875.0000 101983.0000 102083.0000 102167.0000 102183.0000 102335.0000 102503.0000 102747.0000 103067.0000 103071.0000 103115.0000 103151.0000 103223.0000 103239.0000 103259.0000 103511.0000 103711.0000 104463.0000 104639.0000 104655.0000 104671.0000 104819.0000 104923.0000 105015.0000 105075.0000 105255.0000 105331.0000 105467.0000 106071.0000 106219.0000 106299.0000 106583.0000 106695.0000 106759.0000 106799.0000 106851.0000 106899.0000 107711.0000 107955.0000 108179.0000 108211.0000 108243.0000 108363.0000 108387.0000 108443.0000 108703.0000 109027.0000 109111.0000 109331.0000 109351.0000 109431.0000 109895.0000 109927.0000 109995.0000 110031.0000 110147.0000 110307.0000 110467.0000 110731.0000 110915.0000 110971.0000 111043.0000 111055.0000 111191.0000 111295.0000 111327.0000 111579.0000 111895.0000 112427.0000 112607.0000 112619.0000 112807.0000 112943.0000 113195.0000 114151.0000 114483.0000 114491.0000 114515.0000 114535.0000 114643.0000 115071.0000 115511.0000 115651.0000 115683.0000 115755.0000 115963.0000 116011.0000 116023.0000 116215.0000 116683.0000 116987.0000 117359.0000 117423.0000 117531.0000 117691.0000 117699.0000 117747.0000 117767.0000 117923.0000 117991.0000 118023.0000 118127.0000 118135.0000 118139.0000 118171.0000 118183.0000 118215.0000 118271.0000 118511.0000 119107.0000 119271.0000 119351.0000 119423.0000 119467.0000 119475.0000 119519.0000 119583.0000 119615.0000 119783.0000 119867.0000 119883.0000 119887.0000 120031.0000 120251.0000 120343.0000 120695.0000 120827.0000 120855.0000 120919.0000 120943.0000 121035.0000 121063.0000 121079.0000 121123.0000 121175.0000 121375.0000 121391.0000 121499.0000 121507.0000 121543.0000 121559.0000 121655.0000 121703.0000 121707.0000 121887.0000 121975.0000 122131.0000 122287.0000 122571.0000 122579.0000 122659.0000 122791.0000 122807.0000 122927.0000 123075.0000 123191.0000 123207.0000 123303.0000 123539.0000 123699.0000 123987.0000 124099.0000 124171.0000 124183.0000 124271.0000 124283.0000 124311.0000 124331.0000 124431.0000 124455.0000 124659.0000 124667.0000 124675.0000 124683.0000 124735.0000 124767.0000 124851.0000 124859.0000 124883.0000 124923.0000 124971.0000 125019.0000 125063.0000 125267.0000 125687.0000 125747.0000 126051.0000 126087.0000 126139.0000 126175.0000 126219.0000 126335.0000 126339.0000 126367.0000 126543.0000 126647.0000 126691.0000 126783.0000 126787.0000 126835.0000 127139.0000 127207.0000 127255.0000 127803.0000 127959.0000 128035.0000 128123.0000 128131.0000 128163.0000 128271.0000 128499.0000 128531.0000 128579.0000 128583.0000 128739.0000 129619.0000 129643.0000 129803.0000 129967.0000 130099.0000 130239.0000 130287.0000 130339.0000 130471.0000 130483.0000 130503.0000 130575.0000 130587.0000 130751.0000 131079.0000 131159.0000 131555.0000 131655.0000 131767.0000 131867.0000 131939.0000 131999.0000 132075.0000 132091.0000 132135.0000 132195.0000 132231.0000 132235.0000 132347.0000 132483.0000 132523.0000 133515.0000 133631.0000 133679.0000 133759.0000 133791.0000 133811.0000 133843.0000 133895.0000 134047.0000 134191.0000 134223.0000 134239.0000 134255.0000 134307.0000 134379.0000 134395.0000 134435.0000 134503.0000 134539.0000 135067.0000 135331.0000 135419.0000 135447.0000 135471.0000 135551.0000 135567.0000 135683.0000 135699.0000 135947.0000 135959.0000 135975.0000 136111.0000 136659.0000 136683.0000 137287.0000 137319.0000 137423.0000 137491.0000 137571.0000 137619.0000 137639.0000 137751.0000 137783.0000 137947.0000 138063.0000 138143.0000 139055.0000 139199.0000 139531.0000 139587.0000 139615.0000 139671.0000 139739.0000 139943.0000 139951.0000 140127.0000 140479.0000 140575.0000 141103.0000 141107.0000 141203.0000 141211.0000 141239.0000 141499.0000 141719.0000 141775.0000 141847.0000 142059.0000 142243.0000 142247.0000 142327.0000 142855.0000 142979.0000 142995.0000 143011.0000 143027.0000 143039.0000 143051.0000 143067.0000 143263.0000 143287.0000 143347.0000 143383.0000 143427.0000 143447.0000 143487.0000 143643.0000 143695.0000 143839.0000 143859.0000 143911.0000 144123.0000 144167.0000 144379.0000 144439.0000 144803.0000 144839.0000 144943.0000 145215.0000 145659.0000 145803.0000 145831.0000 145915.0000 145987.0000 146375.0000 146387.0000 146391.0000 146567.0000 146619.0000 146743.0000 146835.0000 146871.0000 146967.0000 147035.0000 147327.0000 147415.0000 147511.0000 147739.0000 147811.0000 148043.0000 148183.0000 148263.0000 148279.0000 148315.0000 148331.0000 148447.0000 148463.0000 148495.0000 148691.0000 148739.0000 148779.0000 148783.0000 149351.0000 149503.0000 149887.0000 150059.0000 150131.0000 150155.0000 150159.0000 150163.0000 150167.0000 150447.0000 150723.0000 150735.0000 150871.0000 150879.0000 150883.0000 151083.0000 151311.0000 151475.0000 151667.0000 151707.0000 151767.0000 151771.0000 151799.0000 151803.0000 151847.0000 151851.0000 151903.0000 151947.0000 152359.0000 152383.0000 152403.0000 152415.0000 152455.0000 152683.0000 153195.0000 153211.0000 153363.0000 153399.0000 153439.0000 153495.0000 153719.0000 153727.0000 153835.0000 153903.0000 154371.0000 154415.0000 154447.0000 154467.0000 154531.0000 154543.0000 154563.0000 154863.0000 154867.0000 154907.0000 155243.0000 155755.0000 155787.0000 155859.0000 155927.0000 155947.0000 155963.0000 156023.0000 156039.0000 156127.0000 156131.0000 156831.0000 156847.0000 156943.0000 156971.0000 156991.0000 157011.0000 157111.0000 157211.0000 157231.0000 157259.0000 157267.0000 157291.0000 157359.0000 157411.0000 157747.0000 158143.0000 158267.0000 158279.0000 158319.0000 158467.0000 158507.0000 158587.0000 158611.0000 158619.0000 159023.0000 159031.0000 159155.0000 159315.0000 159331.0000 159335.0000 159451.0000 159511.0000 159535.0000 159555.0000 159571.0000 159699.0000 159719.0000 159735.0000 159763.0000 159783.0000 159795.0000 159839.0000 159955.0000 160019.0000 160323.0000 160415.0000 160463.0000 160527.0000 160671.0000 160719.0000 160835.0000 161095.0000 161259.0000 161603.0000 161855.0000 162003.0000 162055.0000 162167.0000 162187.0000 162195.0000 162455.0000 162579.0000 162623.0000 162651.0000 162655.0000 162695.0000 162755.0000 162815.0000 162847.0000 162871.0000 162883.0000 162887.0000 162907.0000 163051.0000 163263.0000 163375.0000 163423.0000 163559.0000 163647.0000 163707.0000 163995.0000 164135.0000 164151.0000 164171.0000 164267.0000 164279.0000 164347.0000 164435.0000 164499.0000 164539.0000 164579.0000 164635.0000 164743.0000 164967.0000 165027.0000 165163.0000 165359.0000 165423.0000 165431.0000 165631.0000 165667.0000 165851.0000 165899.0000 165955.0000 166051.0000 166163.0000 166175.0000 166255.0000 166271.0000 166415.0000 166495.0000 166591.0000 166847.0000 166931.0000 167127.0000 167203.0000 167255.0000 167367.0000 167383.0000 167411.0000 167427.0000 167459.0000 167559.0000 167579.0000 167631.0000 167643.0000 167647.0000 167671.0000 167875.0000 167999.0000 168015.0000 168403.0000 168547.0000 168703.0000 168727.0000 168803.0000 168939.0000 169091.0000 169131.0000 169203.0000 169215.0000 169219.0000 169331.0000 169391.0000 169503.0000 169527.0000 169587.0000 169615.0000 169739.0000 169763.0000 169995.0000 170319.0000 170411.0000 170475.0000 170655.0000 171099.0000 171231.0000 171263.0000 171311.0000 171319.0000 171351.0000 171399.0000 171463.0000 171479.0000 171499.0000 171551.0000 171859.0000 171947.0000 172083.0000 172155.0000 172363.0000 172435.0000 172747.0000 172935.0000 173035.0000 173299.0000 173343.0000 173375.0000 173431.0000 173435.0000 173555.0000 173583.0000 173967.0000 174207.0000 174347.0000 174491.0000 174671.0000 174735.0000 174755.0000 174919.0000 174935.0000 174943.0000 175087.0000 175139.0000 175167.0000 175175.0000 175195.0000 175547.0000 175575.0000 175691.0000 175943.0000 176183.0000 176291.0000 176591.0000 176659.0000 176695.0000 176995.0000 177051.0000 177071.0000 177091.0000 177239.0000 177271.0000 177287.0000 177391.0000 177395.0000 177491.0000 177523.0000 177527.0000 177583.0000 177639.0000 177711.0000 177739.0000 177779.0000 177783.0000 177927.0000 178155.0000 178223.0000 178375.0000 178531.0000 178675.0000 178795.0000 178839.0000 178951.0000 179007.0000 179067.0000 179147.0000 179239.0000 179391.0000 179459.0000 179743.0000 180123.0000 180347.0000 180483.0000 180503.0000 180767.0000 180823.0000 180871.0000 181023.0000 181155.0000 181199.0000 181367.0000 181371.0000 181555.0000 181639.0000 181891.0000 182403.0000 182687.0000 182755.0000 182807.0000 182839.0000 182931.0000 182975.0000 182995.0000 183019.0000 183051.0000 183175.0000 183235.0000 183287.0000 183303.0000 183307.0000 183335.0000 183391.0000 183399.0000 183443.0000 183579.0000 183683.0000 183943.0000 184271.0000 184307.0000 184335.0000 184371.0000 184687.0000 184703.0000 184727.0000 184775.0000 184791.0000 184795.0000 184883.0000 184947.0000 185263.0000 185335.0000 185339.0000 185431.0000 185439.0000 185447.0000 185463.0000 185475.0000 185511.0000 185583.0000 186283.0000 186423.0000 186455.0000 186563.0000 186759.0000 186767.0000 186775.0000 186799.0000 186819.0000 186927.0000 186979.0000 187103.0000 187107.0000 187159.0000 187503.0000 187591.0000 187771.0000 187875.0000 188015.0000 188195.0000 188223.0000 188263.0000 188391.0000 188731.0000 189039.0000 189051.0000 189099.0000 189147.0000 189175.0000 189271.0000 189287.0000 189315.0000 189371.0000 189547.0000 189619.0000 189771.0000 190035.0000 190067.0000 190315.0000 190335.0000 190403.0000 190639.0000 190775.0000 190943.0000 191059.0000 191139.0000 191171.0000 191227.0000 191339.0000 191375.0000 191403.0000 191475.0000 191679.0000 192051.0000 192231.0000 192399.0000 192403.0000 192647.0000 192687.0000 192823.0000 192951.0000 192963.0000 192971.0000 192975.0000 193007.0000 193263.0000 193287.0000 193295.0000 193395.0000 193543.0000 193703.0000 194059.0000 194099.0000 194175.0000 194435.0000 194451.0000 194731.0000 195103.0000 195271.0000 195283.0000 195359.0000 195463.0000 195627.0000 195755.0000 196335.0000 196375.0000 196515.0000 196747.0000 196843.0000 196863.0000 197047.0000 197071.0000 197395.0000 197687.0000 197767.0000 198111.0000 198323.0000 198331.0000 198399.0000 198651.0000 198667.0000 198687.0000 198715.0000 198811.0000 198903.0000 198911.0000 198943.0000 198971.0000 199003.0000 199079.0000 199135.0000 199235.0000 199247.0000 199255.0000 199411.0000 199779.0000 199851.0000 199959.0000 200047.0000 200067.0000 200071.0000 200335.0000 200563.0000 200571.0000 200707.0000 200759.0000 200787.0000 200871.0000 200903.0000 200915.0000 201099.0000 201155.0000 201359.0000 201547.0000 201571.0000 201603.0000 201807.0000 201831.0000 201915.0000 202007.0000 202043.0000 202071.0000 202151.0000 202219.0000 202239.0000 202299.0000 202359.0000 202487.0000 202595.0000 202767.0000 203207.0000 203443.0000 203507.0000 203711.0000 203775.0000 204047.0000 204231.0000 204243.0000 204323.0000 204407.0000 204431.0000 204827.0000 204951.0000 205015.0000 205039.0000 205199.0000 205291.0000 205483.0000 205491.0000 205871.0000 205875.0000 205883.0000 205979.0000 206187.0000 206203.0000 206291.0000 206303.0000 206339.0000 206343.0000 206451.0000 206563.0000 206591.0000 206635.0000 206671.0000 206791.0000 206919.0000 207119.0000 207151.0000 207347.0000 207575.0000 207667.0000 207879.0000 208059.0000 208275.0000 208359.0000 208419.0000 208683.0000 208739.0000 208839.0000 208851.0000 208871.0000 208903.0000 208963.0000 209047.0000 209295.0000 209843.0000 210063.0000 210155.0000 210251.0000 210555.0000 210635.0000 211047.0000 211275.0000 211355.0000 211527.0000 211887.0000 211995.0000 211999.0000 212003.0000 212043.0000 212115.0000 212119.0000 212127.0000 212163.0000 212195.0000 212247.0000 212283.0000 212503.0000 212519.0000 212571.0000 212607.0000 212723.0000 212787.0000 212915.0000 212979.0000 213103.0000 213107.0000 213267.0000 213859.0000 213879.0000 214099.0000 214139.0000 214303.0000 214331.0000 214339.0000 214355.0000 214399.0000 214459.0000 214463.0000 214515.0000 214543.0000 214603.0000 214619.0000 214759.0000 214779.0000 214803.0000 214823.0000 214847.0000 214879.0000 215011.0000 215307.0000 215467.0000 215691.0000 215783.0000 215811.0000 216019.0000 216179.0000 216183.0000 216251.0000 216623.0000 216639.0000 216655.0000 216847.0000 217063.0000 217255.0000 217319.0000 217363.0000 217427.0000 217467.0000 217555.0000 217647.0000 217979.0000 217991.0000 218015.0000 218135.0000 218175.0000 218187.0000 218215.0000 218375.0000 218431.0000 218459.0000 218491.0000 218583.0000 218671.0000 218875.0000 219075.0000 219507.0000 219727.0000 219811.0000 220151.0000 220187.0000 220215.0000 220407.0000 220991.0000 221023.0000 221279.0000 221287.0000 221459.0000 221551.0000 221635.0000 221667.0000 222199.0000 222699.0000 222959.0000 223367.0000 223383.0000 224107.0000 224127.0000 224231.0000 224327.0000 224371.0000 224651.0000 224707.0000 224743.0000 224839.0000 225299.0000 225315.0000 225879.0000 225883.0000 226111.0000 226175.0000 226491.0000 226531.0000 226555.0000 226619.0000 226763.0000 226791.0000 226799.0000 226955.0000 227111.0000 227131.0000 227539.0000 227651.0000 227671.0000 227847.0000 228051.0000 228135.0000 228283.0000 228363.0000 228447.0000 228511.0000 228615.0000 228919.0000 228939.0000 229015.0000 229067.0000 229199.0000 229279.0000 229435.0000 229447.0000 229519.0000 229631.0000 229743.0000 229947.0000 230531.0000 230559.0000 230615.0000 230771.0000 230883.0000 230935.0000 231219.0000 231263.0000 231339.0000 231851.0000 231867.0000 232031.0000 232247.0000 232275.0000 232303.0000 232367.0000 232415.0000 232495.0000 232507.0000 232551.0000 232611.0000 232771.0000 232899.0000 233023.0000 233451.0000 233671.0000 233727.0000 233767.0000 233787.0000 233819.0000 233831.0000 233871.0000 233975.0000 234195.0000 234331.0000 234447.0000 234811.0000 234819.0000 235363.0000 235367.0000 235375.0000 235455.0000 235503.0000 235611.0000 235763.0000 235799.0000 235883.0000 235963.0000 236043.0000 236067.0000 236603.0000 236687.0000 236943.0000 237031.0000 237707.0000 237823.0000 237907.0000 238023.0000 238071.0000 238199.0000 238203.0000 238319.0000 238511.0000 238527.0000 238595.0000 238687.0000 238695.0000 238815.0000 238923.0000 239087.0000 239139.0000 239183.0000 239187.0000 239279.0000 239319.0000 239399.0000 239491.0000 239535.0000 239539.0000 239543.0000 239547.0000 239843.0000 240219.0000 240527.0000 240831.0000 240899.0000 240907.0000 240967.0000 240971.0000 240991.0000 241083.0000 241383.0000 241419.0000 241467.0000 241579.0000 241595.0000 241659.0000 242051.0000 242215.0000 242275.0000 242299.0000 242431.0000 242459.0000 242511.0000 242723.0000 242735.0000 242823.0000 242875.0000 242895.0000 242899.0000 243059.0000 243075.0000 243091.0000 243295.0000 243351.0000 243419.0000 243527.0000 243547.0000 243723.0000 243827.0000 243839.0000 243935.0000 244007.0000 244031.0000 244203.0000 244259.0000 244323.0000 244799.0000 244871.0000 244975.0000 245107.0000 245175.0000 245275.0000 245347.0000 245535.0000 245655.0000 245659.0000 245895.0000 246463.0000 246563.0000 246683.0000 246715.0000 246799.0000 246831.0000 246951.0000 247139.0000 247191.0000 247215.0000 247263.0000 247291.0000 247315.0000 247411.0000 247431.0000 247447.0000 247535.0000 247823.0000 248123.0000 248127.0000 248223.0000 248291.0000 248543.0000 248567.0000 248607.0000 248715.0000 248727.0000 248747.0000 248907.0000 249059.0000 249267.0000 249303.0000 249531.0000 249579.0000 249667.0000 249735.0000 249763.0000 249915.0000 249975.0000 250123.0000 250187.0000 250327.0000 250363.0000 250451.0000 250511.0000 250635.0000 250779.0000 250843.0000 251011.0000 251123.0000 251195.0000 251267.0000 251295.0000 251355.0000 251431.0000 251567.0000 251615.0000 251619.0000 251667.0000 251767.0000 251771.0000 251839.0000 251931.0000 251979.0000 251995.0000 252143.0000 252203.0000 252291.0000 252603.0000 252875.0000 252931.0000 252939.0000 252967.0000 253051.0000 253063.0000 253095.0000 253123.0000 253255.0000 253263.0000 253307.0000 253331.0000 253399.0000 253431.0000 253531.0000 253603.0000 253691.0000 253695.0000 253703.0000 253903.0000 253947.0000 254011.0000 254067.0000 254111.0000 254143.0000 254647.0000 254663.0