<?xml version="1.0"?>
<VTKFile type="RectilinearGrid" version="1.0" byte_order="LittleEndian" header_type="UInt64">
<RectilinearGrid WholeExtent="25 50 0 25 0 15">
<Piece Extent="25 50 0 25 0 15">
<Coordinates>
<DataArray type="Float64" Name="Array X-Axis" format="ascii" RangeMin="15.0" RangeMax="30.0">
15.0 15.6 16.2 16.8 17.4 18.0 18.6 19.2 19.8 20.4 21.0 21.6 22.2 22.8 23.4 24.0 24.6 25.2 25.8 26.4 27.0 27.6 28.2 28.8 29.4 30.0 
</DataArray>
<DataArray type="Float64" Name="Array Y-Axis" format="ascii" RangeMin="0.0" RangeMax="15.0">
0.0 0.6 1.2 1.8 2.4 3.0 3.6 4.2 4.8 5.4 6.0 6.6 7.2 7.8 8.4 9.0 9.6 10.2 10.8 11.4 12.0 12.6 13.2 13.8 14.4 15.0 
</DataArray>
<DataArray type="Float64" Name="Array Z-Axis" format="ascii" RangeMin="0.0" RangeMax="9.0">
0.0 0.6 1.2 1.8 2.4 3.0 3.6 4.2 4.8 5.4 6.0 6.6 7.2 7.8 8.4 9.0 
</DataArray>
</Coordinates>
<PointData>
<DataArray Name="SOOT DENSITY" NumberOfComponents="1" type="UInt8" format="ascii">
0 0 0 0 0 0 0 0 0 0 0 0 0 0 0 0 0 0 0 0 0 0 0 0 0 0 0 0 0 0 0 0 0 0 0 0 0 0 0 0 0 0 0 0 0 0 0 0 0 0 0 0 0 0 0 0 0 0 0 0 0 0 0 0 0 0 0 0 0 0 0 0 0 0 0 0 0 0 0 0 0 0 0 0 0 0 0 0 0 0 0 0 0 0 0 0 0 0 0 0 0 0 0 0 0 0 0 0 0 0 0 0 0 0 0 0 0 0 0 0 0 0 0 0 0 0 0 0 0 0 0 0 0 0 0 0 0 0 0 0 0 0 0 0 0 0 0 0 0 0 0 0 0 0 0 0 0 0 0 0 0 0 0 0 0 0 0 0 0 0 0 0 0 0 0 0 0 0 0 0 0 0 0 0 0 0 0 0 0 0 0 0 0 0 0 0 0 0 0 0 0 0 0 0 0 0 0 0 0 0 0 0 0 0 0 0 0 0 0 0 0 0 0 0 0 0 0 0 0 0 0 0 0 0 0 0 0 0 0 0 0 0 0 0 0 0 0 0 0 0 0 0 0 0 0 0 0 0 0 0 0 0 0 0 0 0 0 0 0 0 0 0 0 0 0 0 0 0 0 0 0 0 0 0 0 0 0 0 0 0 0 0 0 0 0 0 0 0 0 0 0 0 0 0 0 0 0 0 0 0 0 0 0 0 0 0 0 0 0 0 0 0 0 0 0 0 0 0 0 0 0 0 0 0 0 0 0 0 0 0 0 0 0 0 0 0 0 0 0 0 0 0 0 0 0 0 0 0 0 0 0 0 0 0 0 0 0 0 0 0 0 0 0 0 0 0 0 0 0 0 0 0 0 0 0 0 0 0 0 0 0 0 0 0 0 0 0 0 0 0 0 0 0 0 0 0 0 0 0 0 0 0 0 0 0 0 0 0 0 0 0 0 0 0 0 0 0 0 0 0 0 0 0 0 0 0 0 0 0 0 0 0 0 0 0 0 0 0 0 0 0 0 0 0 0 0 0 0 0 0 0 0 0 0 0 0 0 0 0 0 0 0 1 3 3 1 0 0 0 0 0 0 0 0 0 0 0 0 0 0 0 0 0 0 0 0 1 4 16 39 35 11 5 1 0 0 0 0 0 0 0 0 0 0 0 0 0 0 0 0 0 0 1 10 20 37 33 15 9 2 0 0 0 0 0 0 0 0 0 0 0 0 0 0 0 0 0 0 1 10 9 0 0 8 9 1 0 0 0 0 0 0 0 0 0 0 0 0 0 0 0 0 0 0 1 6 6 0 0 6 7 1 0 0 0 0 0 0 0 0 0 0 0 0 0 0 0 0 0 0 1 6 7 6 7 8 5 0 0 0 0 0 0 0 0 0 0 0 0 0 0 0 0 0 0 0 0 3 5 6 8 6 3 0 0 0 0 0 0 0 0 0 0 0 0 0 0 0 0 0 0 0 0 0 0 1 1 1 1 0 0 0 0 0 0 0 0 0 0 0 0 0 0 0 0 0 0 0 0 0 0 0 0 0 0 0 0 0 0 0 0 0 0 0 0 0 0 0 0 0 0 0 0 0 0 0 0 0 0 0 0 0 0 0 0 0 0 0 0 0 0 0 0 0 0 0 0 0 0 0 0 0 0 0 0 0 0 0 0 0 0 0 0 0 0 0 0 0 0 0 0 0 0 0 0 0 0 0 0 0 0 0 0 0 0 0 0 0 0 0 0 0 0 0 0 0 0 0 0 0 0 0 0 0 0 0 0 0 0 0 0 0 0 0 0 0 0 0 0 0 0 0 0 0 0 0 0 0 0 0 0 0 0 0 0 0 0 0 0 0 0 0 0 0 0 0 0 0 0 0 0 0 0 0 0 0 0 0 0 0 0 0 0 0 0 0 0 0 0 0 0 0 0 0 0 0 0 0 0 0 0 0 0 0 0 0 0 0 0 0 0 0 0 0 0 0 0 0 0 0 0 0 0 0 0 0 0 0 0 0 0 0 0 0 0 0 0 0 0 0 0 0 0 0 0 0 0 0 0 0 0 0 0 0 0 0 0 0 0 0 0 0 0 0 0 0 0 0 0 0 0 0 0 0 0 0 0 0 0 0 0 0 0 0 0 0 0 0 0 0 0 0 0 0 0 0 0 0 0 0 0 0 0 0 0 0 0 0 0 0 0 0 0 0 0 0 0 0 0 0 0 0 0 0 0 0 0 0 0 0 0 0 0 0 0 0 0 0 0 0 0 0 0 0 0 0 0 0 0 0 0 0 0 0 0 0 0 0 0 0 0 0 0 0 0 0 0 0 0 0 0 0 0 0 0 0 0 0 0 0 0 0 0 0 0 0 0 0 0 0 0 0 0 0 0 0 0 0 0 0 0 0 0 0 0 0 0 0 0 0 0 0 0 0 0 0 0 0 0 0 0 0 0 0 0 0 0 0 0 0 0 0 0 0 0 0 0 0 0 0 0 0 0 0 0 0 0 0 0 0 0 0 0 0 0 0 0 0 0 0 0 1 2 1 1 0 0 0 0 0 0 0 0 0 0 0 0 0 0 0 0 0 0 0 0 0 1 7 12 10 8 3 1 0 0 0 0 0 0 0 0 0 0 0 0 0 0 0 0 0 0 2 9 24 50 76 66 33 15 2 0 0 0 0 0 0 0 0 0 0 0 0 0 0 0 0 0 3 12 45 130 174 151 96 41 6 0 0 0 0 0 0 0 0 0 0 0 0 0 0 0 0 0 1 6 53 165 224 225 166 52 9 0 0 0 0 0 0 0 0 0 0 0 0 0 0 0 0 0 1 5 50 146 229 241 196 45 6 0 0 0 0 0 0 0 0 0 0 0 0 0 0 0 0 0 1 11 43 95 174 203 147 26 2 0 0 0 0 0 0 0 0 0 0 0 0 0 0 0 0 0 1 8 21 29 40 43 26 7 0 0 0 0 0 0 0 0 0 0 0 0 0 0 0 0 0 0 0 1 2 3 4 4 2 1 0 0 0 0 0 0 0 0 0 0 0 0 0 0 0 0 0 0 0 0 0 0 0 0 0 0 0 0 0 0 0 0 0 0 0 0 0 0 0 0 0 0 0 0 0 0 0 0 0 0 0 0 0 0 0 0 0 0 0 0 0 0 0 0 0 0 0 0 0 0 0 0 0 0 0 0 0 0 0 0 0 0 0 0 0 0 0 0 0 0 0 0 0 0 0 0 0 0 0 0 0 0 0 0 0 0 0 0 0 0 0 0 0 0 0 0 0 0 0 0 0 0 0 0 0 0 0 0 0 0 0 0 0 0 0 0 0 0 0 0 0 0 0 0 0 0 0 0 0 0 0 0 0 0 0 0 0 0 0 0 0 0 0 0 0 0 0 0 0 0 0 0 0 0 0 0 0 0 0 0 0 0 0 0 0 0 0 0 0 0 0 0 0 0 0 0 0 0 0 0 0 0 0 0 0 0 0 0 0 0 0 0 0 0 0 0 0 0 0 0 0 0 0 0 0 0 0 0 0 0 0 0 0 0 0 0 0 0 0 0 0 0 0 0 0 0 0 0 0 0 0 0 0 0 0 0 0 0 0 0 0 0 0 0 0 0 0 0 0 0 0 0 0 0 0 0 0 0 0 0 0 0 0 0 0 0 0 0 0 0 0 0 0 0 0 0 0 0 0 0 0 0 0 0 0 0 0 0 0 0 0 0 0 0 0 0 0 0 0 0 0 0 0 0 0 0 0 0 0 0 0 0 0 0 0 0 0 0 0 0 0 0 0 0 0 0 0 0 0 0 0 0 0 0 0 0 0 0 0 0 0 0 0 0 0 0 0 0 0 0 0 0 0 0 0 0 0 0 0 0 0 0 0 0 0 0 0 0 0 0 0 0 0 0 0 0 0 0 0 0 0 0 0 0 0 0 0 0 0 0 0 0 0 0 0 0 0 0 0 0 0 0 0 0 0 0 0 0 0 0 0 0 0 0 0 0 3 3 1 0 0 0 0 0 0 0 0 0 0 0 0 0 0 0 0 0 0 0 0 0 0 1 13 16 6 3 2 0 0 0 0 0 0 0 0 0 0 0 0 0 0 0 0 0 0 0 1 10 57 67 31 19 12 3 0 0 0 0 0 0 0 0 0 0 0 0 0 0 0 0 0 1 7 55 131 154 129 92 56 23 4 1 0 0 0 0 0 0 0 0 0 0 0 0 0 0 0 1 11 72 166 225 235 223 174 72 13 1 0 0 0 0 0 0 0 0 0 0 0 0 0 0 0 1 7 40 159 242 252 252 241 158 54 2 0 0 0 0 0 0 0 0 0 0 0 0 0 0 0 1 4 22 139 238 253 254 247 155 53 2 0 0 0 0 0 0 0 0 0 0 0 0 0 0 0 0 3 23 105 197 237 245 215 62 10 1 0 0 0 0 0 0 0 0 0 0 0 0 0 0 0 0 1 14 42 71 84 98 75 18 1 0 0 0 0 0 0 0 0 0 0 0 0 0 0 0 0 0 0 1 3 7 10 10 8 2 0 0 0 0 0 0 0 0 0 0 0 0 0 0 0 0 0 0 0 0 0 0 0 0 0 0 0 0 0 0 0 0 0 0 0 0 0 0 0 0 0 0 0 0 0 0 0 0 0 0 0 0 0 0 0 0 0 0 0 0 0 0 0 0 0 0 0 0 0 0 0 0 0 0 0 0 0 0 0 0 0 0 0 0 0 0 0 0 0 0 0 0 0 0 0 0 0 0 0 0 0 0 0 0 0 0 0 0 0 0 0 0 0 0 0 0 0 0 0 0 0 0 0 0 0 0 0 0 0 0 0 0 0 0 0 0 0 0 0 0 0 0 0 0 0 0 0 0 0 0 0 0 0 0 0 0 0 0 0 0 0 0 0 0 0 0 0 0 0 0 0 0 0 0 0 0 0 0 0 0 0 0 0 0 0 0 0 0 0 0 0 0 0 0 0 0 0 0 0 0 0 0 0 0 0 0 0 0 0 0 0 0 0 0 0 0 0 0 0 0 0 0 0 0 0 0 0 0 0 0 0 0 0 0 0 0 0 0 0 0 0 0 0 0 0 0 0 0 0 0 0 0 0 0 0 0 0 0 0 0 0 0 0 0 0 0 0 0 0 0 0 0 0 0 0 0 0 0 0 0 0 0 0 0 0 0 0 0 0 0 0 0 0 0 0 0 0 0 0 0 0 0 0 0 0 0 0 0 0 0 0 0 0 0 0 0 0 0 0 0 0 0 0 0 0 0 0 0 0 0 0 0 0 0 0 0 0 0 0 0 0 0 0 0 0 0 0 0 0 0 0 0 0 0 0 0 0 0 0 0 0 0 0 0 0 0 0 0 0 0 0 0 0 0 0 0 0 0 0 0 0 0 0 0 0 0 0 0 0 0 0 0 0 0 0 0 0 0 0 0 0 0 0 0 0 0 0 0 0 0 0 0 0 0 0 0 0 0 0 0 0 0 0 0 0 0 0 0 0 0 0 0 0 0 1 7 10 6 2 1 0 0 0 0 0 0 0 0 0 0 0 0 0 0 0 0 0 0 0 0 2 17 33 25 0 5 3 1 0 0 0 0 0 0 0 0 0 0 0 0 0 0 0 0 0 2 10 50 100 94 0 27 20 8 2 0 0 0 0 0 0 0 0 0 0 0 0 0 0 0 0 7 59 165 217 211 0 112 85 49 21 7 0 0 0 0 0 0 0 0 0 0 0 0 0 0 0 12 77 196 241 247 0 239 212 119 40 10 0 0 0 0 0 0 0 0 0 0 0 0 0 0 0 10 44 144 234 251 0 254 252 222 93 5 0 0 0 0 0 0 0 0 0 0 0 0 0 0 0 7 26 117 225 251 0 254 252 223 93 5 0 0 0 0 0 0 0 0 0 0 0 0 0 0 0 4 17 104 194 231 0 246 231 126 26 3 0 0 0 0 0 0 0 0 0 0 0 0 0 0 0 1 7 42 81 95 98 137 136 57 5 1 0 0 0 0 0 0 0 0 0 0 0 0 0 0 0 0 1 8 13 12 16 24 27 13 1 0 0 0 0 0 0 0 0 0 0 0 0 0 0 0 0 0 0 0 0 0 0 0 0 0 0 0 0 0 0 0 0 0 0 0 0 0 0 0 0 0 0 0 0 0 0 0 0 0 0 0 0 0 0 0 0 0 0 0 0 0 0 0 0 0 0 0 0 0 0 0 0 0 0 0 0 0 0 0 0 0 0 0 0 0 0 0 0 0 0 0 0 0 0 0 0 0 0 0 0 0 0 0 0 0 0 0 0 0 0 0 0 0 0 0 0 0 0 0 0 0 0 0 0 0 0 0 0 0 0 0 0 0 0 0 0 0 0 0 0 0 0 0 0 0 0 0 0 0 0 0 0 0 0 0 0 0 0 0 0 0 0 0 0 0 0 0 0 0 0 0 0 0 0 0 0 0 0 0 0 0 0 0 0 0 0 0 0 0 0 0 0 0 0 0 0 0 0 0 0 0 0 0 0 0 0 0 0 0 0 0 0 0 0 0 0 0 0 0 0 0 0 0 0 0 0 0 0 0 0 0 0 0 0 0 0 0 0 0 0 0 0 0 0 0 0 0 0 0 0 0 0 0 0 0 0 0 0 0 0 0 0 0 0 0 0 0 0 0 0 0 0 0 0 0 0 0 0 0 0 0 0 0 0 0 0 0 0 0 0 0 0 0 0 0 0 0 0 0 0 0 0 0 0 0 0 0 0 0 0 0 0 0 0 0 0 0 0 0 0 0 0 0 0 0 0 0 0 0 0 0 0 0 0 0 0 0 0 0 0 0 0 0 0 0 0 0 0 0 0 0 0 0 0 0 0 0 0 0 0 0 0 0 0 0 0 0 0 0 0 0 0 0 0 0 0 0 0 0 0 0 0 0 0 0 0 0 0 0 0 0 0 0 0 0 0 0 0 0 0 0 0 0 0 0 0 0 2 2 1 0 0 0 0 0 0 0 0 0 0 0 0 0 0 0 0 0 0 0 0 0 0 1 12 21 15 5 1 1 1 0 0 0 0 0 0 0 0 0 0 0 0 0 0 0 0 0 0 7 30 52 45 0 0 0 3 2 1 0 0 0 0 0 0 0 0 0 0 0 0 0 0 0 0 27 58 97 107 0 0 0 21 16 7 1 0 0 0 0 0 0 0 0 0 0 0 0 0 0 0 69 162 221 235 0 0 0 94 82 52 18 0 0 0 0 0 0 0 0 0 0 0 0 0 0 0 77 193 244 251 0 0 0 225 173 82 23 1 0 0 0 0 0 0 0 0 0 0 0 0 0 0 44 137 225 249 0 0 0 253 237 100 10 0 0 0 0 0 0 0 0 0 0 0 0 0 0 0 24 98 211 247 0 0 0 253 236 92 8 0 0 0 0 0 0 0 0 0 0 0 0 0 0 0 21 109 206 234 0 0 0 234 163 39 5 0 0 0 0 0 0 0 0 0 0 0 0 0 0 0 12 74 137 140 105 98 147 150 74 8 1 0 0 0 0 0 0 0 0 0 0 0 0 0 0 0 2 25 46 36 22 24 33 34 16 1 0 0 0 0 0 0 0 0 0 0 0 0 0 0 0 0 0 0 0 0 0 0 0 0 0 0 0 0 0 0 0 0 0 0 0 0 0 0 0 0 0 0 0 0 0 0 0 0 0 0 0 0 0 0 0 0 0 0 0 0 0 0 0 0 0 0 0 0 0 0 0 0 0 0 0 0 0 0 0 0 0 0 0 0 0 0 0 0 0 0 0 0 0 0 0 0 0 0 0 0 0 0 0 0 0 0 0 0 0 0 0 0 0 0 0 0 0 0 0 0 0 0 0 0 0 0 0 0 0 0 0 0 0 0 0 0 0 0 0 0 0 0 0 0 0 0 0 0 0 0 0 0 0 0 0 0 0 0 0 0 0 0 0 0 0 0 0 0 0 0 0 0 0 0 0 0 0 0 0 0 0 0 0 0 0 0 0 0 0 0 0 0 0 0 0 0 0 0 0 0 0 0 0 0 0 0 0 0 0 0 0 0 0 0 0 0 0 0 0 0 0 0 0 0 0 0 0 0 0 0 0 0 0 0 0 0 0 0 0 0 0 0 0 0 0 0 0 0 0 0 0 0 0 0 0 0 0 0 0 0 0 0 0 0 0 0 0 0 0 0 0 0 0 0 0 0 0 0 0 0 0 0 0 0 0 0 0 0 0 0 0 0 0 0 0 0 0 0 0 0 0 0 0 0 0 0 0 0 0 0 0 0 0 0 0 0 0 0 0 0 0 0 0 0 0 0 0 0 0 0 0 0 0 0 0 0 0 0 0 0 0 0 0 0 0 0 0 0 0 0 0 0 0 0 0 0 0 0 0 0 0 0 0 0 0 0 0 0 0 0 0 0 0 0 0 0 0 0 0 0 0 0 0 0 0 0 0 0 0 0 0 0 0 0 0 0 0 0 0 0 0 0 0 0 0 0 0 3 4 1 0 0 0 0 0 0 0 0 0 0 0 0 0 0 0 0 0 0 0 0 0 0 17 44 43 19 5 1 1 1 0 0 0 0 0 0 0 0 0 0 0 0 0 0 0 0 0 0 57 98 94 0 0 0 3 4 3 1 0 0 0 0 0 0 0 0 0 0 0 0 0 0 0 0 92 135 131 0 0 0 18 26 38 25 2 0 0 0 0 0 0 0 0 0 0 0 0 0 0 0 154 219 235 0 0 0 64 96 121 89 24 0 0 0 0 0 0 0 0 0 0 0 0 0 0 0 181 241 251 0 0 0 212 223 209 127 30 1 0 0 0 0 0 0 0 0 0 0 0 0 0 0 138 220 246 0 0 0 253 253 240 118 15 1 0 0 0 0 0 0 0 0 0 0 0 0 0 0 92 196 240 0 0 0 253 252 231 95 13 1 0 0 0 0 0 0 0 0 0 0 0 0 0 0 105 205 238 0 0 0 233 221 156 54 8 0 0 0 0 0 0 0 0 0 0 0 0 0 0 0 72 159 196 172 110 102 132 117 49 11 1 0 0 0 0 0 0 0 0 0 0 0 0 0 0 0 12 56 80 56 33 28 28 23 8 1 0 0 0 0 0 0 0 0 0 0 0 0 0 0 0 0 0 0 0 0 0 0 0 0 0 0 0 0 0 0 0 0 0 0 0 0 0 0 0 0 0 0 0 0 0 0 0 0 0 0 0 0 0 0 0 0 0 0 0 0 0 0 0 0 0 0 0 0 0 0 0 0 0 0 0 0 0 0 0 0 0 0 0 0 0 0 0 0 0 0 0 0 0 0 0 0 0 0 0 0 0 0 0 0 0 0 0 0 0 0 0 0 0 0 0 0 0 0 0 0 0 0 0 0 0 0 0 0 0 0 0 0 0 0 0 0 0 0 0 0 0 0 0 0 0 0 0 0 0 0 0 0 0 0 0 0 0 0 0 0 0 0 0 0 0 0 0 0 0 0 0 0 0 0 0 0 0 0 0 0 0 0 0 0 0 0 0 0 0 0 0 0 0 0 0 0 0 0 0 0 0 0 0 0 0 0 0 0 0 0 0 0 0 0 0 0 0 0 0 0 0 0 0 0 0 0 0 0 0 0 0 0 0 0 0 0 0 0 0 0 0 0 0 0 0 0 0 0 0 0 0 0 0 0 0 0 0 0 0 0 0 0 0 0 0 0 0 0 0 0 0 0 0 0 0 0 0 0 0 0 0 0 0 0 0 0 0 0 0 0 0 0 0 0 0 0 0 0 0 0 0 0 0 0 0 0 0 0 0 0 0 0 0 0 0 0 0 0 0 0 0 0 0 0 0 0 0 0 0 0 0 0 0 0 0 0 0 0 0 0 0 0 0 0 0 0 0 0 0 0 0 0 0 0 0 0 0 0 0 0 0 0 0 0 0 0 0 0 0 0 0 0 0 0 0 0 0 0 0 0 0 0 0 0 0 0 0 0 0 0 0 0 0 0 0 0 0 0 0 0 0 0 0 0 0 0 1 4 5 2 0 0 0 0 0 0 0 0 0 0 0 0 0 0 0 0 0 0 0 0 0 0 24 59 59 25 5 0 0 0 0 0 0 0 0 0 0 0 0 0 0 0 0 0 0 0 0 0 90 132 0 0 0 2 3 4 4 1 0 0 0 0 0 0 0 0 0 0 0 0 0 0 0 0 137 170 0 0 0 9 16 34 52 34 2 0 0 0 0 0 0 0 0 0 0 0 0 0 0 0 199 234 0 0 0 39 64 123 148 98 18 0 0 0 0 0 0 0 0 0 0 0 0 0 0 0 226 249 0 0 0 161 183 223 221 137 25 1 0 0 0 0 0 0 0 0 0 0 0 0 0 0 200 240 0 0 0 251 252 251 236 125 17 1 0 0 0 0 0 0 0 0 0 0 0 0 0 0 167 230 0 0 0 252 252 249 218 100 16 1 0 0 0 0 0 0 0 0 0 0 0 0 0 0 191 236 0 0 0 215 215 192 139 68 10 1 0 0 0 0 0 0 0 0 0 0 0 0 0 0 167 216 217 179 113 99 101 72 37 18 2 0 0 0 0 0 0 0 0 0 0 0 0 0 0 0 75 139 140 95 49 27 18 14 6 2 0 0 0 0 0 0 0 0 0 0 0 0 0 0 0 0 0 0 0 0 0 0 0 0 0 0 0 0 0 0 0 0 0 0 0 0 0 0 0 0 0 0 0 0 0 0 0 0 0 0 0 0 0 0 0 0 0 0 0 0 0 0 0 0 0 0 0 0 0 0 0 0 0 0 0 0 0 0 0 0 0 0 0 0 0 0 0 0 0 0 0 0 0 0 0 0 0 0 0 0 0 0 0 0 0 0 0 0 0 0 0 0 0 0 0 0 0 0 0 0 0 0 0 0 0 0 0 0 0 0 0 0 0 0 0 0 0 0 0 0 0 0 0 0 0 0 0 0 0 0 0 0 0 0 0 0 0 0 0 0 0 0 0 0 0 0 0 0 0 0 0 0 0 0 0 0 0 0 0 0 0 0 0 0 0 0 0 0 0 0 0 0 0 0 0 0 0 0 0 0 0 0 0 0 0 0 0 0 0 0 0 0 0 0 0 0 0 0 0 0 0 0 0 0 0 0 0 0 0 0 0 0 0 0 0 0 0 0 0 0 0 0 0 0 0 0 0 0 0 0 0 0 0 0 0 0 0 0 0 0 0 0 0 0 0 0 0 0 0 0 0 0 0 0 0 0 0 0 0 0 0 0 0 0 0 0 0 0 0 0 0 0 0 0 0 0 0 0 0 0 0 0 0 0 0 0 0 0 0 0 0 0 0 0 0 0 0 0 0 0 0 0 0 0 0 0 0 0 0 0 0 0 0 0 0 0 0 0 0 0 0 0 0 0 0 0 0 0 0 0 0 0 0 0 0 0 0 0 0 0 0 0 0 0 0 0 0 0 0 0 0 0 0 0 0 0 0 0 0 0 0 0 0 0 0 0 0 0 0 0 0 0 0 0 0 0 0 0 0 0 0 0 0 0 0 0 1 4 4 1 0 0 0 0 0 0 0 0 0 0 0 0 0 0 0 0 0 0 0 0 0 0 36 61 53 21 3 0 0 0 0 0 0 0 0 0 0 0 0 0 0 0 0 0 0 0 0 0 116 0 0 0 6 1 3 5 4 1 0 0 0 0 0 0 0 0 0 0 0 0 0 0 0 0 165 0 0 0 11 10 20 35 40 20 1 0 0 0 0 0 0 0 0 0 0 0 0 0 0 0 215 0 0 0 61 58 87 133 128 59 7 0 0 0 0 0 0 0 0 0 0 0 0 0 0 0 233 0 0 0 182 184 201 224 207 94 14 1 0 0 0 0 0 0 0 0 0 0 0 0 0 0 215 0 0 0 249 249 250 248 221 94 14 1 0 0 0 0 0 0 0 0 0 0 0 0 0 0 203 0 0 0 248 248 249 242 198 93 17 2 0 0 0 0 0 0 0 0 0 0 0 0 0 0 214 0 0 0 188 174 172 163 144 84 14 1 0 0 0 0 0 0 0 0 0 0 0 0 0 0 191 233 230 195 133 86 66 56 56 35 4 0 0 0 0 0 0 0 0 0 0 0 0 0 0 0 115 196 199 153 87 30 10 11 11 5 1 0 0 0 0 0 0 0 0 0 0 0 0 0 0 0 0 0 0 0 0 0 0 0 0 0 0 0 0 0 0 0 0 0 0 0 0 0 0 0 0 0 0 0 0 0 0 0 0 0 0 0 0 0 0 0 0 0 0 0 0 0 0 0 0 0 0 0 0 0 0 0 0 0 0 0 0 0 0 0 0 0 0 0 0 0 0 0 0 0 0 0 0 0 0 0 0 0 0 0 0 0 0 0 0 0 0 0 0 0 0 0 0 0 0 0 0 0 0 0 0 0 0 0 0 0 0 0 0 0 0 0 0 0 0 0 0 0 0 0 0 0 0 0 0 0 0 0 0 0 0 0 0 0 0 0 0 0 0 0 0 0 0 0 0 0 0 0 0 0 0 0 0 0 0 0 0 0 0 0 0 0 0 0 0 0 0 0 0 0 0 0 0 0 0 0 0 0 0 0 0 0 0 0 0 0 0 0 0 0 0 0 0 0 0 0 0 0 0 0 0 0 0 0 0 0 0 0 0 0 0 0 0 0 0 0 0 0 0 0 0 0 0 0 0 0 0 0 0 0 0 0 0 0 0 0 0 0 0 0 0 0 0 0 0 0 0 0 0 0 0 0 0 0 0 0 0 0 0 0 0 0 0 0 0 0 0 0 0 0 0 0 0 0 0 0 0 0 0 0 0 0 0 0 0 0 0 0 0 0 0 0 0 0 0 0 0 0 0 0 0 0 0 0 0 0 0 0 0 0 0 0 0 0 0 0 0 0 0 0 0 0 0 0 0 0 0 0 0 0 0 0 0 0 0 0 0 0 0 0 0 0 0 0 0 0 0 0 0 0 0 0 0 0 0 0 0 0 0 0 0 0 0 0 0 0 0 0 0 0 0 0 0 0 0 0 0 0 0 0 0 0 0 0 0 0 1 2 2 1 0 0 0 0 0 0 0 0 0 0 0 0 0 0 0 0 0 0 0 0 0 0 40 47 26 8 1 0 1 1 0 0 0 0 0 0 0 0 0 0 0 0 0 0 0 0 0 0 125 138 0 26 5 2 5 7 4 1 0 0 0 0 0 0 0 0 0 0 0 0 0 0 0 0 174 169 0 36 15 16 32 42 28 9 1 0 0 0 0 0 0 0 0 0 0 0 0 0 0 0 212 207 0 102 73 78 121 134 90 26 4 0 0 0 0 0 0 0 0 0 0 0 0 0 0 0 223 233 0 215 198 204 224 223 175 53 9 1 0 0 0 0 0 0 0 0 0 0 0 0 0 0 210 232 0 249 246 247 249 244 195 68 14 2 0 0 0 0 0 0 0 0 0 0 0 0 0 0 209 225 0 246 241 238 242 233 187 96 22 3 0 0 0 0 0 0 0 0 0 0 0 0 0 0 196 227 0 214 170 128 149 171 165 105 22 2 0 0 0 0 0 0 0 0 0 0 0 0 0 0 143 224 233 205 132 60 61 79 87 57 12 1 0 0 0 0 0 0 0 0 0 0 0 0 0 0 80 187 208 167 89 23 11 19 20 11 4 0 0 0 0 0 0 0 0 0 0 0 0 0 0 0 0 0 0 0 0 0 0 0 0 0 0 0 0 0 0 0 0 0 0 0 0 0 0 0 0 0 0 0 0 0 0 0 0 0 0 0 0 0 0 0 0 0 0 0 0 0 0 0 0 0 0 0 0 0 0 0 0 0 0 0 0 0 0 0 0 0 0 0 0 0 0 0 0 0 0 0 0 0 0 0 0 0 0 0 0 0 0 0 0 0 0 0 0 0 0 0 0 0 0 0 0 0 0 0 0 0 0 0 0 0 0 0 0 0 0 0 0 0 0 0 0 0 0 0 0 0 0 0 0 0 1 1 1 1 1 1 1 1 0 0 0 0 0 0 0 0 0 0 0 0 0 0 0 0 0 0 1 1 1 1 1 1 1 1 0 0 0 0 0 0 0 0 0 0 0 0 0 0 0 0 0 0 1 1 1 1 1 1 1 0 0 0 0 0 0 0 0 0 0 0 0 0 0 0 0 0 0 0 1 1 1 1 1 1 0 0 0 0 0 0 0 0 0 0 0 0 0 0 0 0 0 0 0 0 1 1 1 1 1 1 0 0 0 0 0 0 0 0 0 0 0 0 0 0 0 0 0 0 0 0 0 1 1 1 1 1 0 0 0 0 0 0 0 0 0 0 0 0 0 0 0 0 0 0 0 0 0 1 1 2 2 1 0 0 0 0 0 0 0 0 0 0 0 0 0 0 0 0 0 0 0 0 1 1 1 2 2 1 0 0 0 0 0 0 0 0 0 0 0 0 0 0 0 0 0 0 0 0 1 1 1 2 1 1 0 0 0 0 0 0 0 0 0 0 0 0 0 0 0 0 0 0 0 0 1 1 2 2 1 1 0 0 0 0 0 0 0 0 0 0 0 0 0 0 0 0 0 0 0 0 1 2 2 1 1 0 0 0 0 0 0 0 0 0 0 0 0 0 0 0 0 0 0 0 0 0 16 18 8 3 1 1 1 1 1 0 0 0 0 0 0 0 0 0 0 0 0 0 0 0 0 0 80 99 68 26 4 4 9 20 18 5 0 0 0 0 0 0 0 0 0 0 0 0 0 0 0 0 151 152 106 49 20 34 63 75 57 22 2 0 0 0 0 0 0 0 0 0 0 0 0 0 0 0 199 197 164 115 82 112 163 164 113 49 8 1 0 0 0 0 0 0 0 0 0 0 0 0 0 0 208 226 227 216 197 213 234 228 178 80 15 2 0 0 0 0 0 0 0 0 0 0 0 0 0 0 201 228 242 245 241 243 248 241 194 98 25 3 0 0 0 0 0 0 0 0 0 0 0 0 0 0 194 212 233 241 233 231 239 232 198 126 40 6 0 0 0 0 0 0 0 0 0 0 0 0 0 0 149 194 220 214 166 137 177 202 195 141 50 6 0 0 0 0 0 0 0 0 0 0 0 0 0 0 75 178 214 185 98 44 85 132 134 94 34 3 0 0 0 0 0 0 0 0 0 0 0 0 0 0 34 124 159 113 43 10 16 38 42 23 7 1 0 0 0 0 0 0 0 0 0 0 0 0 0 0 0 0 0 0 0 0 0 0 0 0 1 1 0 0 0 0 0 0 0 0 0 0 0 0 0 0 1 1 1 1 1 1 1 1 1 1 1 1 1 1 1 1 1 1 1 1 1 1 0 0 0 0 2 3 2 2 2 2 2 2 2 2 2 2 2 2 2 1 1 1 1 1 1 1 1 0 0 0 4 5 4 3 3 2 2 2 2 2 3 3 3 3 3 2 1 1 1 1 1 1 1 1 0 0 6 6 5 4 4 4 4 3 3 3 3 3 3 3 2 1 1 1 1 1 1 1 1 1 0 0 8 6 5 5 5 5 5 4 3 4 3 3 3 2 1 1 1 1 1 1 1 1 1 1 0 0 9 6 5 6 5 5 5 3 3 3 3 2 2 2 1 1 1 1 1 1 1 0 0 1 0 0 8 5 5 5 4 5 4 3 2 3 3 3 3 2 1 1 1 1 1 1 0 0 1 1 1 0 5 4 5 5 5 6 5 3 3 3 4 3 3 2 2 1 1 1 1 0 0 1 1 1 1 0 3 4 7 12 15 15 9 3 2 3 3 2 2 2 2 2 1 1 1 0 0 1 1 1 1 0 3 5 17 32 35 24 10 3 1 2 2 1 1 1 2 2 1 1 1 1 1 1 1 1 1 0 4 9 27 46 42 21 7 2 1 1 1 1 1 1 1 1 1 1 1 1 1 1 1 1 0 0 6 10 24 37 31 13 5 3 1 1 1 1 1 1 1 1 1 1 2 2 1 2 1 1 1 0 10 10 19 23 16 8 4 3 1 1 1 1 1 1 1 1 1 1 1 2 2 2 2 1 1 0 14 11 16 17 10 6 3 2 1 1 1 1 1 1 1 1 1 1 1 1 2 2 2 1 1 0 16 17 19 14 9 6 3 1 1 1 1 1 1 1 1 1 1 1 1 1 2 2 2 1 1 0 36 49 44 22 12 8 5 3 2 1 1 1 1 1 1 1 1 1 1 1 2 3 2 1 1 0 102 113 92 48 24 18 21 35 29 8 1 1 1 1 1 1 1 1 1 1 2 3 2 1 1 0 163 160 120 73 49 67 98 116 94 35 4 1 1 1 1 1 1 1 1 1 2 2 2 1 1 0 198 200 176 140 125 155 188 192 155 75 14 2 1 1 1 1 1 1 1 1 2 2 2 2 1 0 207 225 228 217 208 222 236 233 200 112 27 4 1 1 1 1 1 1 1 1 1 2 2 2 2 0 200 226 239 240 237 242 246 240 215 147 49 7 1 1 1 1 1 1 1 1 1 2 4 4 2 1 179 199 225 233 227 230 236 232 220 178 83 14 2 2 1 1 1 1 1 1 1 3 4 4 2 1 128 149 197 202 164 153 188 214 216 179 88 13 2 1 1 1 1 1 0 1 1 2 3 3 2 1 91 121 165 152 84 53 105 160 167 124 47 5 1 1 1 1 1 1 1 1 1 2 3 3 2 1 57 82 87 61 29 18 26 50 59 36 9 2 1 1 1 1 1 1 1 1 1 2 3 3 2 1 8 5 8 9 8 10 9 9 21 27 19 15 11 5 2 3 3 4 4 4 3 3 4 4 2 2 18 13 17 20 20 20 17 21 32 35 30 26 19 11 7 7 9 9 9 9 9 8 7 5 3 3 30 27 28 25 23 22 20 24 35 45 45 43 36 24 15 11 11 11 10 10 10 11 10 8 5 4 46 45 38 28 24 24 23 25 33 43 47 48 43 30 18 12 10 10 10 10 10 11 11 10 7 4 50 49 38 27 25 24 24 28 34 37 37 38 33 24 15 10 8 8 8 9 10 10 10 10 9 3 52 42 31 26 23 24 24 24 28 29 27 25 21 16 11 8 7 7 8 9 9 9 9 9 7 3 43 32 25 23 20 22 23 19 20 22 21 19 17 14 11 9 8 7 7 8 8 8 8 8 7 3 25 22 22 22 20 21 22 19 19 20 20 21 19 16 13 12 10 8 7 7 7 8 8 9 8 3 15 16 21 29 32 34 31 22 19 20 21 22 22 20 16 14 13 11 8 6 6 7 8 10 9 4 11 18 42 71 77 69 52 27 16 18 18 18 19 19 16 14 13 13 10 6 5 6 8 12 11 4 14 32 83 120 122 96 59 29 13 12 13 13 13 13 12 10 10 12 12 8 6 7 8 11 11 4 25 52 106 136 128 88 48 29 16 10 9 10 10 9 8 7 8 11 13 12 10 9 9 10 9 3 45 63 98 115 98 61 39 34 24 13 7 6 8 8 7 6 7 9 11 12 12 12 12 10 8 3 74 76 85 83 59 41 33 29 22 14 7 5 6 8 7 6 6 7 8 10 11 12 13 12 8 5 94 85 82 72 46 37 28 20 15 13 9 5 5 7 7 5 5 6 7 8 9 11 13 13 9 6 96 92 89 76 52 47 35 21 13 13 11 7 5 6 7 6 5 5 6 7 8 10 13 13 10 7 125 135 121 92 60 52 50 43 24 15 12 8 6 6 8 8 7 6 6 6 8 11 13 13 11 8 177 182 157 113 73 58 66 75 57 28 15 10 7 7 8 9 9 7 6 6 8 11 13 14 11 9 201 198 172 134 99 99 119 134 113 58 25 13 9 9 10 11 11 9 6 6 7 10 12 13 12 10 214 214 203 184 166 176 188 193 168 99 43 15 9 12 14 14 12 9 6 6 7 10 11 13 13 11 217 229 231 224 220 227 230 229 208 139 63 21 9 14 18 18 14 9 6 5 7 9 11 13 13 11 210 231 239 239 237 241 242 237 225 177 90 27 12 18 22 22 17 10 6 5 6 9 12 15 14 12 193 213 228 230 226 229 228 228 229 207 136 44 15 19 21 21 16 10 6 4 6 9 14 16 15 13 174 180 192 194 168 157 174 208 223 205 139 46 13 13 15 15 12 8 5 5 6 9 14 16 14 12 168 168 162 152 103 78 104 151 175 150 76 24 10 8 10 11 10 8 6 5 6 8 13 15 14 12 138 157 133 118 84 69 63 61 73 58 26 14 9 8 9 10 10 8 6 6 6 8 12 14 15 10 56 55 66 88 106 115 108 94 102 108 78 57 46 23 10 23 27 30 29 28 28 30 41 40 31 18 106 89 91 101 108 111 106 103 113 122 107 94 81 55 37 34 40 44 44 42 43 45 46 44 38 31 139 131 123 111 101 97 94 100 114 129 133 131 121 96 68 47 42 46 47 46 48 50 51 49 42 35 148 146 129 105 95 93 88 93 106 119 128 132 127 111 84 54 39 40 43 46 48 50 51 51 46 39 141 135 115 92 87 89 85 93 106 111 114 113 108 97 75 50 36 34 38 43 46 47 47 48 47 41 124 112 98 87 82 84 85 91 103 107 104 95 85 75 58 42 33 30 33 40 45 46 46 45 42 36 91 84 82 80 77 79 82 88 98 102 97 87 77 69 57 45 37 30 31 36 41 45 44 42 37 24 53 59 70 72 73 74 76 84 90 89 87 87 84 79 68 56 45 35 30 30 34 41 43 43 38 23 36 44 64 92 101 94 86 79 75 71 76 86 91 89 78 63 51 41 32 27 29 36 41 46 43 26 37 46 94 144 150 132 109 79 58 54 63 75 82 82 75 62 51 45 38 29 26 30 34 45 47 31 51 76 142 178 179 154 120 87 53 42 49 63 69 63 56 50 45 44 41 33 27 27 32 43 47 33 81 112 164 186 184 158 119 100 73 48 38 50 59 50 38 35 36 40 42 38 33 31 33 39 38 17 121 139 166 177 172 157 125 111 100 73 41 36 47 44 33 29 31 36 39 40 39 38 38 36 31 13 165 166 172 171 157 158 138 111 98 87 53 28 34 40 33 27 28 32 35 36 38 40 40 38 29 12 190 182 182 182 164 167 155 121 85 83 62 32 27 35 35 28 25 28 31 32 33 37 39 39 30 14 194 192 192 194 180 176 169 145 95 73 68 42 27 32 36 33 27 26 28 30 31 35 38 39 31 14 200 210 201 195 178 166 169 166 124 74 64 47 31 32 37 38 33 28 27 29 32 37 40 40 32 16 215 223 207 189 164 144 156 171 148 90 57 46 36 35 38 41 41 37 32 30 32 37 41 42 36 24 226 226 214 194 165 148 155 169 156 105 61 47 42 42 43 45 46 44 37 32 33 37 40 43 39 33 233 231 227 218 200 191 186 186 171 121 72 46 45 52 54 52 47 42 35 32 33 35 38 42 41 36 233 237 237 233 230 228 219 215 204 152 88 44 38 53 63 62 51 39 31 29 30 32 35 40 41 36 230 238 241 239 238 240 232 226 221 180 112 49 36 55 71 70 53 36 26 24 25 29 34 40 39 33 223 234 235 233 230 228 215 218 225 209 155 72 44 60 71 67 49 35 27 24 25 31 37 41 37 30 219 225 219 209 190 168 156 189 215 207 155 74 44 52 58 54 45 39 35 30 28 33 38 40 36 31 221 222 211 193 147 123 117 130 160 149 93 52 39 41 43 43 41 40 37 33 30 31 37 40 37 32 201 220 210 197 166 147 128 100 94 78 54 44 38 36 36 37 37 36 34 31 30 30 35 39 38 26 132 153 160 171 179 186 185 179 180 182 165 150 143 128 110 103 96 87 77 71 72 75 86 88 81 56 175 168 169 172 174 177 178 177 181 185 177 167 159 146 130 120 114 106 92 83 83 85 88 91 86 79 187 185 180 171 165 162 162 166 172 179 182 179 173 162 149 136 125 116 101 90 90 91 92 94 89 82 183 183 174 162 157 155 152 154 159 165 171 173 170 164 152 137 123 113 101 95 95 96 97 98 93 87 172 169 159 149 147 147 144 148 154 158 162 162 159 154 142 127 114 104 97 95 97 99 100 100 97 92 153 148 147 143 141 139 138 143 150 155 157 153 146 140 130 117 105 95 91 93 97 101 102 101 96 90 127 128 134 136 136 133 131 138 146 150 150 146 139 134 126 116 104 92 87 89 93 98 99 97 91 81 108 112 125 132 134 130 125 131 136 136 137 140 139 135 129 120 108 92 83 81 85 91 93 95 91 82 102 103 121 147 154 140 127 122 120 115 121 132 137 136 129 119 108 94 82 77 78 84 87 92 94 85 114 113 142 177 178 155 134 119 105 98 105 118 126 126 122 114 105 95 83 75 73 76 78 87 92 87 138 144 173 195 191 167 149 136 107 91 92 105 113 109 104 101 97 92 83 74 70 71 74 83 90 86 164 172 190 203 204 192 179 172 143 111 89 94 102 96 87 85 88 89 83 74 70 70 73 78 81 69 186 193 203 210 214 215 205 196 178 147 108 87 90 88 80 78 82 87 85 78 73 72 73 74 73 62 209 213 218 221 220 225 219 205 185 167 135 100 89 88 81 76 78 85 89 86 80 75 73 72 68 57 225 227 229 230 227 229 226 211 183 167 151 125 107 103 97 85 78 83 90 93 88 80 73 71 66 54 231 234 234 235 231 229 229 220 193 166 156 141 127 125 124 113 94 83 87 94 95 89 78 71 65 52 233 237 234 233 227 221 223 224 208 172 150 141 135 136 140 138 122 100 90 93 97 97 88 76 65 52 235 238 231 226 217 207 210 218 210 175 137 126 129 137 144 146 142 128 108 97 97 100 96 85 71 59 238 238 232 225 213 202 201 206 199 165 122 110 116 129 142 149 150 144 124 101 95 98 99 93 79 69 240 239 236 231 223 215 206 199 186 152 112 96 104 119 136 148 151 146 128 101 89 92 96 96 86 76 241 240 239 236 234 230 216 205 194 157 110 84 88 107 130 146 148 141 121 93 82 86 90 93 86 78 240 242 241 238 237 235 221 209 205 172 125 89 87 107 134 148 138 119 98 83 78 82 84 84 77 68 238 241 240 235 231 225 206 201 210 196 155 111 105 123 145 152 137 111 92 85 81 79 77 74 68 61 237 240 235 225 209 192 173 175 195 190 151 119 118 134 147 146 134 115 99 93 88 82 74 69 67 63 237 238 234 221 193 177 167 148 148 142 119 116 125 137 140 131 113 99 94 95 94 88 76 68 67 64 219 237 234 227 209 195 183 158 132 117 114 122 132 137 131 113 92 87 92 97 97 90 77 69 67 49 103 127 131 131 130 134 138 139 141 142 135 128 124 118 104 90 79 68 57 52 52 54 57 60 58 42 127 128 130 128 125 128 131 134 137 140 136 129 125 121 113 103 93 80 65 55 54 54 56 60 59 56 122 125 125 121 118 118 119 121 125 128 128 124 120 119 118 115 106 92 74 61 59 59 59 61 60 58 113 115 114 113 113 111 110 111 112 114 116 116 113 110 111 111 104 92 77 67 66 66 66 65 63 60 103 104 105 105 105 103 102 103 104 106 110 111 108 105 104 102 95 85 75 69 69 71 72 71 67 64 93 93 97 99 99 95 93 95 97 100 105 107 104 101 99 95 86 78 71 69 70 73 74 73 69 66 85 86 92 95 96 92 86 87 90 93 98 101 99 97 96 92 84 75 69 67 68 71 72 72 68 64 82 82 89 95 97 91 83 82 83 85 89 93 93 92 91 89 82 72 65 63 64 66 67 68 68 66 84 81 88 103 106 93 82 78 76 75 78 84 86 85 84 84 80 71 63 60 60 61 61 64 67 68 96 92 102 120 117 95 81 76 72 68 68 74 77 77 77 77 76 69 60 56 56 57 57 59 64 67 116 115 122 134 127 102 96 93 76 67 63 66 70 70 69 70 70 67 59 53 53 53 54 57 61 64 134 133 137 146 147 137 136 133 107 84 66 61 63 64 63 63 66 65 59 52 50 51 52 54 57 58 145 148 155 162 168 173 171 165 140 111 84 64 59 60 59 60 63 65 62 55 50 49 50 52 53 54 159 168 175 179 181 187 186 176 151 128 108 84 68 62 60 59 61 66 68 64 57 50 48 49 50 50 178 188 190 190 188 190 189 178 152 131 122 110 93 83 77 68 62 65 71 74 69 57 49 48 48 48 191 198 196 194 189 187 188 182 161 136 125 122 115 109 107 96 78 67 71 77 77 69 56 48 47 46 196 199 194 190 182 176 178 181 172 145 122 119 121 122 124 121 105 84 75 77 80 77 66 53 47 45 197 196 189 183 174 165 164 170 168 144 112 104 112 122 128 130 125 110 91 79 79 79 74 62 50 47 197 194 188 180 170 161 157 156 151 129 97 86 94 110 124 131 132 125 106 83 75 78 77 70 57 50 197 193 188 181 175 168 157 146 133 111 83 72 77 91 112 127 133 129 111 82 69 72 75 73 63 56 197 194 190 185 184 178 158 140 127 104 77 62 65 78 101 122 129 125 105 76 63 67 71 71 64 57 198 198 194 187 185 180 158 139 129 108 83 67 67 78 102 120 117 103 84 68 63 64 65 61 55 50 198 200 195 183 174 166 145 132 134 122 98 83 83 94 114 126 117 95 76 70 66 60 55 50 47 45 196 198 191 174 155 141 127 117 122 118 99 91 97 110 123 125 115 95 78 74 71 62 51 45 46 46 192 196 189 171 148 134 127 110 98 95 89 94 107 119 121 111 92 75 71 74 76 69 54 45 45 46 162 191 188 177 160 146 139 120 97 89 91 102 116 121 115 95 72 65 71 78 79 72 57 46 45 35 0 0 0 0 0 0 0 0 0 0 0 0 0 0 0 0 0 0 0 0 0 0 0 0 0 0 0 0 0 0 0 0 0 0 0 0 0 0 0 0 0 0 0 0 0 0 0 0 0 0 0 0 0 0 0 0 0 0 0 0 0 0 0 0 0 0 0 0 0 0 0 0 0 0 0 0 0 0 0 0 0 0 0 0 0 0 0 0 0 0 0 0 0 0 0 0 0 0 0 0 0 0 0 0 0 0 0 0 0 0 0 0 0 0 0 0 0 0 0 0 0 0 0 0 0 0 0 0 0 0 0 0 0 0 0 0 0 0 0 0 0 0 0 0 0 0 0 0 0 0 0 0 0 0 0 0 0 0 0 0 0 0 0 0 0 0 0 0 0 0 0 0 0 0 0 0 0 0 0 0 0 0 0 0 0 0 0 0 0 0 0 0 0 0 0 0 0 0 0 0 0 0 0 0 0 0 0 0 0 0 0 0 0 0 0 0 0 0 0 0 0 0 0 0 0 0 0 0 0 0 0 0 0 0 0 0 0 0 0 0 0 0 0 0 0 0 0 0 0 0 0 0 0 0 0 0 0 0 0 0 0 0 0 0 0 0 0 0 0 0 0 0 0 0 0 0 0 0 0 0 0 0 0 0 0 0 0 0 0 0 0 0 0 0 0 0 0 0 0 0 0 0 0 0 0 0 0 0 0 0 0 0 0 0 0 0 0 0 0 0 0 0 0 0 0 0 0 0 0 0 0 0 0 0 0 0 0 0 0 0 0 0 0 0 0 0 0 0 0 0 0 0 0 0 0 0 0 0 0 0 0 0 0 0 0 0 0 0 0 0 0 0 0 0 0 0 0 0 0 0 0 0 0 0 0 0 0 0 0 0 0 0 0 0 0 0 0 0 0 0 0 0 0 0 0 0 0 0 0 0 0 0 0 0 0 0 0 0 0 0 0 0 0 0 0 0 0 0 0 0 0 0 0 0 0 0 0 0 0 0 0 0 0 0 0 0 0 0 0 0 0 0 0 0 0 0 0 0 0 0 0 0 0 0 0 0 0 0 0 0 0 0 0 0 0 0 0 0 0 0 0 0 0 0 0 0 0 0 0 0 0 0 0 0 0 0 0 0 0 0 0 0 0 0 0 0 0 0 0 0 0 0 0 0 0 0 0 0 0 0 0 0 0 0 0 0 0 0 0 0 0 0 0 0 0 0 0 0 0 0 0 0 0 0 0 0 0 0 0 0 0 0 0 0 0 0 0 0 0 0 0 0 0 0 0 0 0 0 0 0 0 0 0 0 0 0 0 0 0 0 0 0 0 0 0 0 0 0 0 0 0 0 0 0 0 0 0 0 0 0 0 0 0 0 0 0 0 0 0 0 0 0 0 0 0 0 0 0 0 0 0 0 0 0 0 0 0 0 0 0 0 0 0 0 0 0 0 0 0 0 0 0 0 0 0 0 0 0 0 0 0 0 0 0 0 0 0 0 0 0 0 0 0 0 0 0 0 0 0 0 0 0 0 0 0 0 
</DataArray>
<DataArray Name="HRRPUV" NumberOfComponents="1" type="UInt8" format="ascii">