<?xml version="1.0"?>
<VTKFile type="RectilinearGrid" version="1.0" byte_order="LittleEndian" header_type="UInt64">
<RectilinearGrid WholeExtent="25 50 0 25 0 15">
<Piece Extent="25 50 0 25 0 15">
<Coordinates>
<DataArray type="Float64" Name="Array X-Axis" format="ascii" RangeMin="15.0" RangeMax="30.0">
15.0 15.6 16.2 16.8 17.4 18.0 18.6 19.2 19.8 20.4 21.0 21.6 22.2 22.8 23.4 24.0 24.6 25.2 25.8 26.4 27.0 27.6 28.2 28.8 29.4 30.0 
</DataArray>
<DataArray type="Float64" Name="Array Y-Axis" format="ascii" RangeMin="0.0" RangeMax="15.0">
0.0 0.6 1.2 1.8 2.4 3.0 3.6 4.2 4.8 5.4 6.0 6.6 7.2 7.8 8.4 9.0 9.6 10.2 10.8 11.4 12.0 12.6 13.2 13.8 14.4 15.0 
</DataArray>
<DataArray type="Float64" Name="Array Z-Axis" format="ascii" RangeMin="0.0" RangeMax="9.0">
0.0 0.6 1.2 1.8 2.4 3.0 3.6 4.2 4.8 5.4 6.0 6.6 7.2 7.8 8.4 9.0 
</DataArray>
</Coordinates>
<PointData>
<DataArray Name="SOOT DENSITY" NumberOfComponents="1" type="UInt8" format="ascii">
0 0 0 0 0 0 0 0 0 0 0 0 0 0 0 0 0 0 0 0 0 0 0 0 0 0 0 0 0 0 0 0 0 0 0 0 0 0 0 0 0 0 0 0 0 0 0 0 0 0 0 0 0 0 0 0 0 0 0 0 0 0 0 0 0 0 0 0 0 0 0 0 0 0 0 0 0 0 0 0 0 0 0 0 0 0 0 0 0 0 0 0 0 0 0 0 0 0 0 0 0 0 0 0 0 0 0 0 0 0 0 0 0 0 0 0 0 0 0 0 0 0 0 0 0 0 0 0 0 0 0 0 0 0 0 0 0 0 0 0 0 0 0 0 0 0 0 0 0 0 0 0 0 0 0 0 0 0 0 0 0 0 0 0 0 0 0 0 0 0 0 0 0 0 0 0 0 0 0 0 0 0 0 0 0 0 0 0 0 0 0 0 0 0 0 0 0 0 0 0 0 0 0 0 0 0 0 0 0 0 0 0 0 0 0 0 0 0 0 0 0 0 0 0 0 0 0 0 0 0 0 0 0 0 0 0 0 0 0 0 0 0 0 0 0 0 0 0 0 0 0 0 0 0 0 0 0 0 0 0 0 0 0 0 0 0 0 0 0 0 0 0 0 0 0 0 0 0 0 0 0 0 0 0 0 0 0 0 0 0 0 0 0 0 0 0 0 0 0 0 0 0 0 0 0 0 0 0 0 0 0 0 0 0 0 0 0 0 0 0 0 0 0 0 0 0 0 0 0 0 0 0 0 0 0 0 0 0 0 0 0 0 0 0 0 0 0 0 0 0 0 0 0 0 0 0 0 0 0 0 0 0 0 0 0 0 0 0 0 0 0 0 0 0 0 0 0 0 0 0 0 0 0 0 0 0 0 0 0 0 0 0 0 0 0 0 0 0 0 0 0 0 0 0 0 0 0 0 0 0 0 0 0 0 0 0 0 0 0 0 0 0 0 0 0 0 0 0 0 0 0 0 0 0 0 0 0 0 0 0 0 0 0 0 0 0 0 0 0 0 0 0 0 0 0 0 0 0 0 0 0 0 0 0 0 0 0 0 0 0 0 0 0 0 0 0 0 0 0 0 0 0 0 0 0 0 0 0 0 0 0 0 0 0 0 0 0 2 4 4 7 6 1 0 0 0 0 0 0 0 0 0 0 0 0 0 0 0 0 0 0 0 1 4 5 4 7 13 9 1 0 0 0 0 0 0 0 0 0 0 0 0 0 0 0 0 0 0 1 7 6 0 0 20 23 4 0 0 0 0 0 0 0 0 0 0 0 0 0 0 0 0 0 0 1 8 6 0 0 19 24 6 0 0 0 0 0 0 0 0 0 0 0 0 0 0 0 0 0 0 1 4 4 4 6 12 12 3 0 0 0 0 0 0 0 0 0 0 0 0 0 0 0 0 0 0 0 1 2 4 7 6 3 0 0 0 0 0 0 0 0 0 0 0 0 0 0 0 0 0 0 0 0 0 1 1 1 0 0 0 0 0 0 0 0 0 0 0 0 0 0 0 0 0 0 0 0 0 0 0 0 0 0 0 0 0 0 0 0 0 0 0 0 0 0 0 0 0 0 0 0 0 0 0 0 0 0 0 0 0 0 0 0 0 0 0 0 0 0 0 0 0 0 0 0 0 0 0 0 0 0 0 0 0 0 0 0 0 0 0 0 0 0 0 0 0 0 0 0 0 0 0 0 0 0 0 0 0 0 0 0 0 0 0 0 0 0 0 0 0 0 0 0 0 0 0 0 0 0 0 0 0 0 0 0 0 0 0 0 0 0 0 0 0 0 0 0 0 0 0 0 0 0 0 0 0 0 0 0 0 0 0 0 0 0 0 0 0 0 0 0 0 0 0 0 0 0 0 0 0 0 0 0 0 0 0 0 0 0 0 0 0 0 0 0 0 0 0 0 0 0 0 0 0 0 0 0 0 0 0 0 0 0 0 0 0 0 0 0 0 0 0 0 0 0 0 0 0 0 0 0 0 0 0 0 0 0 0 0 0 0 0 0 0 0 0 0 0 0 0 0 0 0 0 0 0 0 0 0 0 0 0 0 0 0 0 0 0 0 0 0 0 0 0 0 0 0 0 0 0 0 0 0 0 0 0 0 0 0 0 0 0 0 0 0 0 0 0 0 0 0 0 0 0 0 0 0 0 0 0 0 0 0 0 0 0 0 0 0 0 0 0 0 0 0 0 0 0 0 0 0 0 0 0 0 0 0 0 0 0 0 0 0 0 0 0 0 0 0 0 0 0 0 0 0 0 0 0 0 0 0 0 0 0 0 0 0 0 0 0 0 0 0 0 0 0 0 0 0 0 0 0 0 0 0 0 0 0 0 0 0 0 0 0 0 0 0 0 0 0 0 0 0 0 0 0 0 0 0 0 0 0 0 0 0 0 0 0 0 0 0 0 0 0 0 0 0 0 0 0 0 0 0 0 0 0 0 0 0 0 0 0 0 0 0 0 0 0 0 0 0 0 0 0 0 0 0 0 0 0 0 0 0 0 0 0 0 0 0 0 0 1 1 0 0 0 0 0 0 0 0 0 0 0 0 0 0 0 0 0 0 0 0 0 0 0 1 5 6 3 4 2 0 0 0 0 0 0 0 0 0 0 0 0 0 0 0 0 0 0 0 1 2 10 20 30 49 35 4 0 0 0 0 0 0 0 0 0 0 0 0 0 0 0 0 0 0 1 5 23 74 152 186 141 40 8 0 0 0 0 0 0 0 0 0 0 0 0 0 0 0 0 0 1 7 37 126 220 241 216 110 49 3 0 0 0 0 0 0 0 0 0 0 0 0 0 0 0 0 1 10 45 150 219 241 223 116 53 3 0 0 0 0 0 0 0 0 0 0 0 0 0 0 0 0 1 8 35 112 149 181 166 63 14 1 0 0 0 0 0 0 0 0 0 0 0 0 0 0 0 0 0 1 12 24 27 35 42 22 1 0 0 0 0 0 0 0 0 0 0 0 0 0 0 0 0 0 0 0 1 3 4 5 4 2 0 0 0 0 0 0 0 0 0 0 0 0 0 0 0 0 0 0 0 0 0 0 0 0 0 0 0 0 0 0 0 0 0 0 0 0 0 0 0 0 0 0 0 0 0 0 0 0 0 0 0 0 0 0 0 0 0 0 0 0 0 0 0 0 0 0 0 0 0 0 0 0 0 0 0 0 0 0 0 0 0 0 0 0 0 0 0 0 0 0 0 0 0 0 0 0 0 0 0 0 0 0 0 0 0 0 0 0 0 0 0 0 0 0 0 0 0 0 0 0 0 0 0 0 0 0 0 0 0 0 0 0 0 0 0 0 0 0 0 0 0 0 0 0 0 0 0 0 0 0 0 0 0 0 0 0 0 0 0 0 0 0 0 0 0 0 0 0 0 0 0 0 0 0 0 0 0 0 0 0 0 0 0 0 0 0 0 0 0 0 0 0 0 0 0 0 0 0 0 0 0 0 0 0 0 0 0 0 0 0 0 0 0 0 0 0 0 0 0 0 0 0 0 0 0 0 0 0 0 0 0 0 0 0 0 0 0 0 0 0 0 0 0 0 0 0 0 0 0 0 0 0 0 0 0 0 0 0 0 0 0 0 0 0 0 0 0 0 0 0 0 0 0 0 0 0 0 0 0 0 0 0 0 0 0 0 0 0 0 0 0 0 0 0 0 0 0 0 0 0 0 0 0 0 0 0 0 0 0 0 0 0 0 0 0 0 0 0 0 0 0 0 0 0 0 0 0 0 0 0 0 0 0 0 0 0 0 0 0 0 0 0 0 0 0 0 0 0 0 0 0 0 0 0 0 0 0 0 0 0 0 0 0 0 0 0 0 0 0 0 0 0 0 0 0 0 0 0 0 0 0 0 0 0 0 0 0 0 0 0 0 0 0 0 0 0 0 0 0 0 0 0 0 0 0 0 0 0 0 0 0 0 0 0 0 0 0 0 0 0 0 0 0 0 0 0 0 0 0 0 0 0 0 0 0 0 2 3 1 0 0 0 0 0 0 0 0 0 0 0 0 0 0 0 0 0 0 0 0 0 0 2 24 24 3 1 1 0 0 0 0 0 0 0 0 0 0 0 0 0 0 0 0 0 0 0 2 15 55 49 11 11 8 2 0 0 0 0 0 0 0 0 0 0 0 0 0 0 0 0 0 1 7 29 65 67 67 88 63 16 3 0 0 0 0 0 0 0 0 0 0 0 0 0 0 0 0 1 9 31 80 155 217 233 200 102 43 1 0 0 0 0 0 0 0 0 0 0 0 0 0 0 0 1 6 29 111 219 251 253 250 219 148 8 0 0 0 0 0 0 0 0 0 0 0 0 0 0 0 1 5 41 129 226 250 254 253 236 156 9 0 0 0 0 0 0 0 0 0 0 0 0 0 0 0 0 3 35 105 178 209 243 245 189 59 2 0 0 0 0 0 0 0 0 0 0 0 0 0 0 0 0 1 9 41 61 68 133 141 59 3 0 0 0 0 0 0 0 0 0 0 0 0 0 0 0 0 0 0 1 5 10 11 13 10 3 0 0 0 0 0 0 0 0 0 0 0 0 0 0 0 0 0 0 0 0 0 0 0 0 0 0 0 0 0 0 0 0 0 0 0 0 0 0 0 0 0 0 0 0 0 0 0 0 0 0 0 0 0 0 0 0 0 0 0 0 0 0 0 0 0 0 0 0 0 0 0 0 0 0 0 0 0 0 0 0 0 0 0 0 0 0 0 0 0 0 0 0 0 0 0 0 0 0 0 0 0 0 0 0 0 0 0 0 0 0 0 0 0 0 0 0 0 0 0 0 0 0 0 0 0 0 0 0 0 0 0 0 0 0 0 0 0 0 0 0 0 0 0 0 0 0 0 0 0 0 0 0 0 0 0 0 0 0 0 0 0 0 0 0 0 0 0 0 0 0 0 0 0 0 0 0 0 0 0 0 0 0 0 0 0 0 0 0 0 0 0 0 0 0 0 0 0 0 0 0 0 0 0 0 0 0 0 0 0 0 0 0 0 0 0 0 0 0 0 0 0 0 0 0 0 0 0 0 0 0 0 0 0 0 0 0 0 0 0 0 0 0 0 0 0 0 0 0 0 0 0 0 0 0 0 0 0 0 0 0 0 0 0 0 0 0 0 0 0 0 0 0 0 0 0 0 0 0 0 0 0 0 0 0 0 0 0 0 0 0 0 0 0 0 0 0 0 0 0 0 0 0 0 0 0 0 0 0 0 0 0 0 0 0 0 0 0 0 0 0 0 0 0 0 0 0 0 0 0 0 0 0 0 0 0 0 0 0 0 0 0 0 0 0 0 0 0 0 0 0 0 0 0 0 0 0 0 0 0 0 0 0 0 0 0 0 0 0 0 0 0 0 0 0 0 0 0 0 0 0 0 0 0 0 0 0 0 0 0 0 0 0 0 0 0 0 0 0 0 0 0 0 0 0 0 0 0 0 0 0 0 0 0 0 0 0 0 0 0 0 0 0 0 0 0 0 0 0 0 0 0 0 0 0 0 2 5 4 1 0 0 0 0 0 0 0 0 0 0 0 0 0 0 0 0 0 0 0 0 0 2 22 47 32 0 2 1 0 0 0 0 0 0 0 0 0 0 0 0 0 0 0 0 0 0 9 28 81 112 70 0 17 13 5 1 0 0 0 0 0 0 0 0 0 0 0 0 0 0 0 0 15 60 119 137 100 0 99 75 31 6 0 0 0 0 0 0 0 0 0 0 0 0 0 0 0 0 20 71 127 166 192 0 227 209 159 79 4 0 0 0 0 0 0 0 0 0 0 0 0 0 0 0 20 57 131 206 242 0 253 253 248 204 16 0 0 0 0 0 0 0 0 0 0 0 0 0 0 0 9 37 133 215 242 0 254 254 252 208 15 0 0 0 0 0 0 0 0 0 0 0 0 0 0 0 3 21 112 186 199 0 251 252 231 93 2 0 0 0 0 0 0 0 0 0 0 0 0 0 0 0 1 6 51 98 97 113 183 182 83 6 0 0 0 0 0 0 0 0 0 0 0 0 0 0 0 0 0 1 4 15 21 22 26 16 3 0 0 0 0 0 0 0 0 0 0 0 0 0 0 0 0 0 0 0 0 0 0 0 0 0 0 0 0 0 0 0 0 0 0 0 0 0 0 0 0 0 0 0 0 0 0 0 0 0 0 0 0 0 0 0 0 0 0 0 0 0 0 0 0 0 0 0 0 0 0 0 0 0 0 0 0 0 0 0 0 0 0 0 0 0 0 0 0 0 0 0 0 0 0 0 0 0 0 0 0 0 0 0 0 0 0 0 0 0 0 0 0 0 0 0 0 0 0 0 0 0 0 0 0 0 0 0 0 0 0 0 0 0 0 0 0 0 0 0 0 0 0 0 0 0 0 0 0 0 0 0 0 0 0 0 0 0 0 0 0 0 0 0 0 0 0 0 0 0 0 0 0 0 0 0 0 0 0 0 0 0 0 0 0 0 0 0 0 0 0 0 0 0 0 0 0 0 0 0 0 0 0 0 0 0 0 0 0 0 0 0 0 0 0 0 0 0 0 0 0 0 0 0 0 0 0 0 0 0 0 0 0 0 0 0 0 0 0 0 0 0 0 0 0 0 0 0 0 0 0 0 0 0 0 0 0 0 0 0 0 0 0 0 0 0 0 0 0 0 0 0 0 0 0 0 0 0 0 0 0 0 0 0 0 0 0 0 0 0 0 0 0 0 0 0 0 0 0 0 0 0 0 0 0 0 0 0 0 0 0 0 0 0 0 0 0 0 0 0 0 0 0 0 0 0 0 0 0 0 0 0 0 0 0 0 0 0 0 0 0 0 0 0 0 0 0 0 0 0 0 0 0 0 0 0 0 0 0 0 0 0 0 0 0 0 0 0 0 0 0 0 0 0 0 0 0 0 0 0 0 0 0 0 0 0 0 0 0 0 0 0 0 0 0 0 0 0 0 0 0 0 0 0 0 0 0 0 0 1 1 0 0 0 0 0 0 0 0 0 0 0 0 0 0 0 0 0 0 0 0 0 0 0 0 5 9 5 2 1 0 0 0 0 0 0 0 0 0 0 0 0 0 0 0 0 0 0 0 0 3 18 40 40 0 0 0 2 1 0 0 0 0 0 0 0 0 0 0 0 0 0 0 0 0 0 33 86 122 113 0 0 0 14 6 1 0 0 0 0 0 0 0 0 0 0 0 0 0 0 0 0 72 152 181 162 0 0 0 75 39 6 0 0 0 0 0 0 0 0 0 0 0 0 0 0 0 0 81 172 208 208 0 0 0 212 179 74 4 0 0 0 0 0 0 0 0 0 0 0 0 0 0 0 58 156 220 239 0 0 0 253 251 196 15 0 0 0 0 0 0 0 0 0 0 0 0 0 0 0 32 136 222 243 0 0 0 254 253 199 13 0 0 0 0 0 0 0 0 0 0 0 0 0 0 0 18 112 209 229 0 0 0 251 236 87 2 0 0 0 0 0 0 0 0 0 0 0 0 0 0 0 5 55 140 163 129 129 169 180 119 12 0 0 0 0 0 0 0 0 0 0 0 0 0 0 0 0 1 15 29 34 34 35 36 27 12 0 0 0 0 0 0 0 0 0 0 0 0 0 0 0 0 0 0 0 0 0 0 0 0 0 0 0 0 0 0 0 0 0 0 0 0 0 0 0 0 0 0 0 0 0 0 0 0 0 0 0 0 0 0 0 0 0 0 0 0 0 0 0 0 0 0 0 0 0 0 0 0 0 0 0 0 0 0 0 0 0 0 0 0 0 0 0 0 0 0 0 0 0 0 0 0 0 0 0 0 0 0 0 0 0 0 0 0 0 0 0 0 0 0 0 0 0 0 0 0 0 0 0 0 0 0 0 0 0 0 0 0 0 0 0 0 0 0 0 0 0 0 0 0 0 0 0 0 0 0 0 0 0 0 0 0 0 0 0 0 0 0 0 0 0 0 0 0 0 0 0 0 0 0 0 0 0 0 0 0 0 0 0 0 0 0 0 0 0 0 0 0 0 0 0 0 0 0 0 0 0 0 0 0 0 0 0 0 0 0 0 0 0 0 0 0 0 0 0 0 0 0 0 0 0 0 0 0 0 0 0 0 0 0 0 0 0 0 0 0 0 0 0 0 0 0 0 0 0 0 0 0 0 0 0 0 0 0 0 0 0 0 0 0 0 0 0 0 0 0 0 0 0 0 0 0 0 0 0 0 0 0 0 0 0 0 0 0 0 0 0 0 0 0 0 0 0 0 0 0 0 0 0 0 0 0 0 0 0 0 0 0 0 0 0 0 0 0 0 0 0 0 0 0 0 0 0 0 0 0 0 0 0 0 0 0 0 0 0 0 0 0 0 0 0 0 0 0 0 0 0 0 0 0 0 0 0 0 0 0 0 0 0 0 0 0 0 0 0 0 0 0 0 0 0 0 0 0 0 0 0 0 0 0 0 0 0 0 0 0 0 0 0 0 0 0 0 0 0 0 0 0 0 0 0 0 0 0 1 2 1 0 0 0 0 0 0 0 0 0 0 0 0 0 0 0 0 0 0 0 0 0 0 2 9 11 6 2 0 0 0 0 0 0 0 0 0 0 0 0 0 0 0 0 0 0 0 0 0 21 37 36 0 0 0 2 2 1 0 0 0 0 0 0 0 0 0 0 0 0 0 0 0 0 0 91 128 114 0 0 0 18 14 8 2 0 0 0 0 0 0 0 0 0 0 0 0 0 0 0 0 166 206 198 0 0 0 67 72 49 8 1 0 0 0 0 0 0 0 0 0 0 0 0 0 0 0 186 229 233 0 0 0 181 207 177 46 5 1 0 0 0 0 0 0 0 0 0 0 0 0 0 0 167 229 243 0 0 0 252 253 247 132 9 1 0 0 0 0 0 0 0 0 0 0 0 0 0 0 162 228 246 0 0 0 254 254 251 150 8 0 0 0 0 0 0 0 0 0 0 0 0 0 0 0 123 210 240 0 0 0 242 249 237 84 3 0 0 0 0 0 0 0 0 0 0 0 0 0 0 0 32 124 189 196 159 126 136 175 144 17 0 0 0 0 0 0 0 0 0 0 0 0 0 0 0 0 9 36 53 56 52 43 37 29 16 0 0 0 0 0 0 0 0 0 0 0 0 0 0 0 0 0 0 0 0 0 0 0 0 0 0 0 0 0 0 0 0 0 0 0 0 0 0 0 0 0 0 0 0 0 0 0 0 0 0 0 0 0 0 0 0 0 0 0 0 0 0 0 0 0 0 0 0 0 0 0 0 0 0 0 0 0 0 0 0 0 0 0 0 0 0 0 0 0 0 0 0 0 0 0 0 0 0 0 0 0 0 0 0 0 0 0 0 0 0 0 0 0 0 0 0 0 0 0 0 0 0 0 0 0 0 0 0 0 0 0 0 0 0 0 0 0 0 0 0 0 0 0 0 0 0 0 0 0 0 0 0 0 0 0 0 0 0 0 0 0 0 0 0 0 0 0 0 0 0 0 0 0 0 0 0 0 0 0 0 0 0 0 0 0 0 0 0 0 0 0 0 0 0 0 0 0 0 0 0 0 0 0 0 0 0 0 0 0 0 0 0 0 0 0 0 0 0 0 0 0 0 0 0 0 0 0 0 0 0 0 0 0 0 0 0 0 0 0 0 0 0 0 0 0 0 0 0 0 0 0 0 0 0 0 0 0 0 0 0 0 0 0 0 0 0 0 0 0 0 0 0 0 0 0 0 0 0 0 0 0 0 0 0 0 0 0 0 0 0 0 0 0 0 0 0 0 0 0 0 0 0 0 0 0 0 0 0 0 0 0 0 0 0 0 0 0 0 0 0 0 0 0 0 0 0 0 0 0 0 0 0 0 0 0 0 0 0 0 0 0 0 0 0 0 0 0 0 0 0 0 0 0 0 0 0 0 0 0 0 0 0 0 0 0 0 0 0 0 0 0 0 0 0 0 0 0 0 0 0 0 0 0 0 0 0 0 0 0 0 0 0 0 0 0 0 0 0 0 0 0 0 0 0 0 0 0 0 1 1 0 0 0 0 0 0 0 0 0 0 0 0 0 0 0 0 0 0 0 0 0 0 0 5 7 6 4 2 0 0 0 0 0 0 0 0 0 0 0 0 0 0 0 0 0 0 0 0 0 34 36 0 0 0 3 3 3 3 1 0 0 0 0 0 0 0 0 0 0 0 0 0 0 0 0 115 128 0 0 0 22 20 16 12 7 3 0 0 0 0 0 0 0 0 0 0 0 0 0 0 0 214 221 0 0 0 60 61 75 59 19 5 0 0 0 0 0 0 0 0 0 0 0 0 0 0 0 238 244 0 0 0 140 150 186 156 39 10 1 0 0 0 0 0 0 0 0 0 0 0 0 0 0 234 246 0 0 0 248 249 249 223 67 13 1 0 0 0 0 0 0 0 0 0 0 0 0 0 0 235 247 0 0 0 252 252 252 235 86 9 1 0 0 0 0 0 0 0 0 0 0 0 0 0 0 221 242 0 0 0 228 228 235 206 59 4 0 0 0 0 0 0 0 0 0 0 0 0 0 0 0 144 200 214 208 178 129 120 136 102 11 0 0 0 0 0 0 0 0 0 0 0 0 0 0 0 0 45 94 96 74 58 41 34 21 9 0 0 0 0 0 0 0 0 0 0 0 0 0 0 0 0 0 0 0 0 0 0 0 0 0 0 0 0 0 0 0 0 0 0 0 0 0 0 0 0 0 0 0 0 0 0 0 0 0 0 0 0 0 0 0 0 0 0 0 0 0 0 0 0 0 0 0 0 0 0 0 0 0 0 0 0 0 0 0 0 0 0 0 0 0 0 0 0 0 0 0 0 0 0 0 0 0 0 0 0 0 0 0 0 0 0 0 0 0 0 0 0 0 0 0 0 0 0 0 0 0 0 0 0 0 0 0 0 0 0 0 0 0 0 0 0 0 0 0 0 0 0 0 0 0 0 0 0 0 0 0 0 0 0 0 0 0 0 0 0 0 0 0 0 0 0 0 0 0 0 0 0 0 0 0 0 0 0 0 0 0 0 0 0 0 0 0 0 0 0 0 0 0 0 0 0 0 0 0 0 0 0 0 0 0 0 0 0 0 0 0 0 0 0 0 0 0 0 0 0 0 0 0 0 0 0 0 0 0 0 0 0 0 0 0 0 0 0 0 0 0 0 0 0 0 0 0 0 0 0 0 0 0 0 0 0 0 0 0 0 0 0 0 0 0 0 0 0 0 0 0 0 0 0 0 0 0 0 0 0 0 0 0 0 0 0 0 0 0 0 0 0 0 0 0 0 0 0 0 0 0 0 0 0 0 0 0 0 0 0 0 0 0 0 0 0 0 0 0 0 0 0 0 0 0 0 0 0 0 0 0 0 0 0 0 0 0 0 0 0 0 0 0 0 0 0 0 0 0 0 0 0 0 0 0 0 0 0 0 0 0 0 0 0 0 0 0 0 0 0 0 0 0 0 0 0 0 0 0 0 0 0 0 0 0 0 0 0 0 0 0 0 0 0 0 0 0 0 0 0 0 0 0 0 0 0 0 1 1 0 0 0 0 0 0 0 0 0 0 0 0 0 0 0 0 0 0 0 0 0 0 0 0 5 4 2 1 1 0 0 1 1 0 0 0 0 0 0 0 0 0 0 0 0 0 0 0 0 0 36 0 0 0 3 3 6 8 6 3 0 0 0 0 0 0 0 0 0 0 0 0 0 0 0 0 102 0 0 0 15 19 26 27 22 14 4 0 0 0 0 0 0 0 0 0 0 0 0 0 0 0 218 0 0 0 50 54 66 75 62 31 9 1 0 0 0 0 0 0 0 0 0 0 0 0 0 0 247 0 0 0 132 140 141 140 114 50 18 2 0 0 0 0 0 0 0 0 0 0 0 0 0 0 249 0 0 0 240 242 238 212 137 54 22 2 0 0 0 0 0 0 0 0 0 0 0 0 0 0 248 0 0 0 248 248 244 220 128 40 13 1 0 0 0 0 0 0 0 0 0 0 0 0 0 0 242 0 0 0 233 215 201 169 93 22 5 0 0 0 0 0 0 0 0 0 0 0 0 0 0 0 198 228 227 210 177 126 110 85 39 7 1 0 0 0 0 0 0 0 0 0 0 0 0 0 0 0 62 135 139 83 46 29 30 20 6 1 0 0 0 0 0 0 0 0 0 0 0 0 0 0 0 0 0 0 0 0 0 0 0 0 0 0 0 0 0 0 0 0 0 0 0 0 0 0 0 0 0 0 0 0 0 0 0 0 0 0 0 0 0 0 0 0 0 0 0 0 0 0 0 0 0 0 0 0 0 0 0 0 0 0 0 0 0 0 0 0 0 0 0 0 0 0 0 0 0 0 0 0 0 0 0 0 0 0 0 0 0 0 0 0 0 0 0 0 0 0 0 0 0 0 0 0 0 0 0 0 0 0 0 0 0 0 0 0 0 0 0 0 0 0 0 0 0 0 0 0 0 0 0 0 0 0 0 0 0 0 0 0 0 0 0 0 0 0 0 0 0 0 0 0 0 0 0 0 0 0 0 0 0 0 0 0 0 0 0 0 0 0 0 0 0 0 0 0 0 0 0 0 0 0 0 0 0 0 0 0 0 0 0 0 0 0 0 0 0 0 0 0 0 0 0 0 0 0 0 0 0 0 0 0 0 0 0 0 0 0 0 0 0 0 0 0 0 0 0 0 0 0 0 0 0 0 0 0 0 0 0 0 0 0 0 0 0 0 0 0 0 0 0 0 0 0 0 0 0 0 0 0 0 0 0 0 0 0 0 0 0 0 0 0 0 0 0 0 0 0 0 0 0 0 0 0 0 0 0 0 0 0 0 0 0 0 0 0 0 0 0 0 0 0 0 0 0 0 0 0 0 0 0 0 0 0 0 0 0 0 0 0 0 0 0 0 0 0 0 0 0 0 0 0 0 0 0 0 0 0 0 0 0 0 0 0 0 0 0 0 0 0 0 0 0 0 0 0 0 0 0 0 0 0 0 0 0 0 0 0 0 0 0 0 0 0 0 0 0 0 0 0 0 0 0 0 0 0 0 0 0 0 0 0 0 0 1 1 1 0 0 0 0 0 0 0 0 0 0 0 0 0 0 0 0 0 0 0 0 0 0 0 4 3 2 1 1 0 1 1 1 0 0 0 0 0 0 0 0 0 0 0 0 0 0 0 0 0 34 24 0 4 2 3 12 22 17 4 0 0 0 0 0 0 0 0 0 0 0 0 0 0 0 0 95 82 0 21 10 18 45 56 47 25 4 0 0 0 0 0 0 0 0 0 0 0 0 0 0 0 202 191 0 112 52 52 87 94 77 45 10 1 0 0 0 0 0 0 0 0 0 0 0 0 0 0 246 243 0 189 128 126 142 126 103 64 20 2 0 0 0 0 0 0 0 0 0 0 0 0 0 0 251 251 0 232 219 220 208 153 102 65 23 3 0 0 0 0 0 0 0 0 0 0 0 0 0 0 249 251 0 242 238 233 215 153 76 39 13 2 0 0 0 0 0 0 0 0 0 0 0 0 0 0 242 248 0 239 231 205 176 129 52 19 6 1 0 0 0 0 0 0 0 0 0 0 0 0 0 0 194 226 223 205 179 132 114 86 28 8 2 0 0 0 0 0 0 0 0 0 0 0 0 0 0 0 49 123 131 75 40 25 33 26 7 2 0 0 0 0 0 0 0 0 0 0 0 0 0 0 0 0 0 0 0 0 0 0 0 0 0 0 0 0 0 0 0 0 0 0 0 0 0 0 0 0 0 0 0 0 0 0 0 0 0 0 0 0 0 0 0 0 0 0 0 0 0 0 0 0 0 0 0 0 0 0 0 0 0 0 0 0 0 0 0 0 0 0 0 0 0 0 0 0 0 0 0 0 0 0 0 0 0 0 0 0 0 0 0 0 0 0 0 0 0 0 0 0 0 0 0 0 0 0 0 0 0 0 0 0 0 0 0 0 0 0 0 0 0 0 0 0 0 0 0 0 0 0 0 0 0 0 0 0 0 0 0 0 0 0 0 0 0 0 0 0 0 0 0 0 0 0 0 0 0 0 0 0 1 0 0 0 0 0 0 0 0 0 0 0 0 0 0 0 0 0 0 0 0 0 0 0 0 0 3 1 0 0 0 0 1 0 0 0 0 0 0 0 0 0 0 0 0 0 0 0 0 0 0 0 4 1 1 0 1 1 1 1 0 0 0 0 0 0 0 0 0 0 0 0 0 0 0 0 0 0 3 1 1 1 1 2 2 1 1 0 0 0 0 0 0 0 0 0 0 0 0 0 0 0 0 0 2 1 1 1 2 5 5 2 1 0 0 0 0 0 0 0 0 0 0 0 0 0 0 0 0 0 3 2 1 1 2 5 5 2 1 1 0 0 0 0 0 0 0 0 0 0 0 0 0 0 0 0 2 2 2 2 2 3 3 2 1 0 0 0 0 0 0 0 0 0 0 0 0 0 0 0 0 0 2 2 2 2 2 2 2 2 1 1 0 0 0 0 0 0 0 0 0 0 0 0 0 0 0 0 2 2 2 3 3 2 2 1 1 1 0 0 0 0 0 0 0 0 0 0 0 0 0 0 0 0 2 5 8 6 3 2 1 1 1 0 0 0 0 0 0 0 0 0 0 0 0 0 0 0 0 0 5 9 15 14 5 2 2 2 2 1 1 0 0 0 0 0 0 0 0 0 0 0 0 0 0 0 33 25 23 19 9 4 14 32 30 11 1 0 0 0 0 0 0 0 0 0 0 0 0 0 0 0 121 106 71 34 13 18 56 86 85 46 5 1 0 0 0 0 0 0 0 0 0 0 0 0 0 0 210 212 206 154 63 59 106 126 111 66 12 2 0 0 0 0 0 0 0 0 0 0 0 0 0 0 245 246 245 223 139 118 148 150 125 74 20 4 0 0 0 0 0 0 0 0 0 0 0 0 0 0 250 251 248 233 198 190 189 164 129 78 25 4 1 0 0 0 0 0 0 0 0 0 0 0 0 0 246 249 245 236 226 218 204 168 113 56 19 4 1 0 0 0 0 0 0 0 0 0 0 0 0 0 227 241 240 237 231 213 192 160 88 32 12 5 2 0 0 0 0 0 0 0 0 0 0 0 0 0 158 198 202 196 187 155 140 113 46 18 10 6 3 1 0 0 0 0 0 0 0 0 0 0 0 0 39 78 81 57 45 35 46 37 14 10 7 4 2 0 0 0 0 0 0 0 0 0 0 0 0 0 1 1 1 1 0 0 0 0 0 0 1 1 1 0 0 0 0 0 0 0 0 0 0 0 0 0 2 2 2 2 1 0 0 0 0 1 2 2 2 1 1 0 0 0 0 0 0 0 1 1 0 0 2 2 2 2 1 1 1 1 1 1 2 2 2 1 1 1 1 1 1 1 1 1 1 1 1 0 2 2 2 2 2 2 1 1 1 1 2 2 2 1 1 1 1 1 1 1 1 1 1 1 1 0 2 2 2 2 2 2 3 2 2 2 2 2 2 1 1 1 2 2 1 1 1 1 1 1 1 0 5 3 3 3 2 3 4 4 3 3 3 2 2 2 2 2 2 1 1 1 1 1 1 1 0 0 13 11 8 5 4 5 6 4 3 3 3 3 2 2 2 2 2 1 1 1 1 1 1 1 0 0 28 21 13 6 8 17 18 8 3 3 3 3 2 2 2 2 1 1 1 1 1 1 1 1 0 0 29 21 12 8 18 43 47 25 9 3 2 2 2 2 2 1 1 1 1 1 1 1 1 0 0 0 19 14 9 10 29 65 70 44 20 6 3 2 2 2 1 1 1 1 1 1 1 1 1 0 0 0 21 16 9 12 35 72 75 50 30 12 4 2 2 1 1 1 1 1 1 1 1 1 0 0 0 0 29 25 14 16 34 57 62 48 32 16 5 2 2 1 1 1 1 1 1 1 1 0 0 0 0 0 27 25 16 19 25 34 44 43 32 17 6 3 2 1 1 1 1 1 1 0 0 0 0 0 0 0 19 18 17 23 23 29 34 32 30 17 6 3 2 2 2 1 1 1 0 0 0 0 0 0 0 0 16 17 22 29 26 25 22 18 20 13 5 4 3 3 3 3 2 1 0 0 0 0 0 0 0 0 18 38 60 54 29 17 13 10 10 8 5 4 4 5 5 5 4 2 0 0 0 0 0 0 0 0 26 55 93 80 37 16 12 9 9 7 5 4 4 5 5 5 4 2 0 0 0 0 0 0 0 0 55 55 79 73 37 16 18 31 34 19 7 5 4 4 4 4 3 1 0 0 0 0 0 0 0 0 153 120 86 60 39 28 49 89 100 59 12 5 3 3 2 2 1 1 0 0 0 0 0 0 0 0 229 229 213 159 105 88 104 138 135 77 19 7 2 2 1 1 1 1 0 0 0 0 0 0 0 0 248 250 247 227 176 157 165 175 152 83 26 7 2 1 1 1 1 1 0 0 0 0 0 0 0 0 249 250 247 234 209 201 204 197 164 94 33 9 3 1 1 1 1 1 0 0 0 0 0 0 0 0 239 243 238 230 224 220 214 199 152 77 30 10 4 1 1 1 1 1 0 0 0 1 1 0 0 0 200 214 219 223 224 216 204 184 122 51 23 10 4 2 1 1 1 1 0 0 0 0 1 0 0 0 111 134 150 169 175 161 151 127 70 34 20 12 6 2 2 2 2 1 0 0 0 0 0 0 0 0 36 49 51 54 59 56 55 42 24 20 14 9 5 3 2 3 3 2 1 0 0 0 0 0 0 0 19 32 42 38 20 6 2 1 2 5 11 17 25 22 9 3 2 2 1 1 2 2 2 2 3 3 20 27 37 34 19 7 5 7 7 10 19 30 32 24 19 15 9 4 4 4 5 6 6 5 4 3 14 16 23 23 17 11 9 10 10 10 15 24 25 21 23 22 14 8 8 7 7 8 8 8 5 3 15 12 15 17 16 14 11 10 9 9 12 17 17 16 18 19 14 12 12 10 9 8 8 8 6 2 24 16 15 14 12 14 16 15 12 10 12 13 14 15 17 17 16 15 13 10 9 8 7 8 5 2 44 30 23 17 14 18 24 23 17 15 16 16 17 18 19 17 17 16 13 11 9 8 8 8 5 2 73 62 45 25 26 44 48 30 16 16 21 22 21 22 21 18 17 16 14 11 9 9 10 8 5 2 89 85 62 35 57 100 102 58 19 11 18 20 20 23 22 19 17 15 13 11 10 11 12 9 5 3 78 75 57 49 95 145 149 111 53 15 12 14 17 21 21 18 16 14 13 12 13 14 13 10 6 4 71 59 41 60 117 161 166 144 96 35 13 13 15 17 18 16 14 13 13 14 16 16 13 11 8 5 99 83 49 62 118 157 163 147 116 66 25 15 14 14 14 13 11 12 13 15 15 13 12 11 8 4 118 110 72 68 106 136 150 141 116 81 44 23 14 12 12 10 8 10 13 13 12 9 9 10 7 2 104 100 76 75 91 113 138 137 115 83 55 32 18 13 12 10 8 9 10 9 8 8 8 9 7 2 81 79 72 95 104 111 124 121 110 81 53 36 23 20 19 17 13 9 7 6 6 7 8 9 6 2 79 85 81 119 129 111 101 90 88 71 49 37 28 27 28 26 21 12 7 5 5 6 7 9 6 2 101 123 130 144 134 104 81 64 61 55 47 39 32 32 33 31 26 17 8 5 5 6 7 9 6 2 123 143 161 155 120 86 59 47 44 42 44 40 34 33 32 29 23 15 7 4 5 6 8 10 7 2 126 124 140 131 100 69 46 48 51 43 42 40 33 29 25 22 17 10 6 5 6 8 10 11 8 1 175 139 121 110 110 95 71 88 99 68 43 39 31 22 18 16 13 8 5 5 6 8 10 11 7 1 234 227 206 175 168 152 120 138 139 89 52 37 28 18 12 11 10 7 5 5 6 7 9 10 7 1 248 249 242 224 207 196 182 186 167 105 61 35 24 16 11 10 8 6 5 5 6 7 8 8 5 1 246 248 243 230 219 216 215 211 183 117 70 44 24 14 12 11 9 7 5 6 7 7 8 8 4 1 231 234 228 221 220 216 213 205 167 105 73 52 25 13 11 10 9 7 6 6 6 7 9 10 6 1 195 188 186 198 205 198 189 175 128 81 65 45 22 14 10 10 8 7 5 5 6 7 9 11 6 1 124 110 113 146 160 149 146 131 85 60 55 38 21 16 13 11 10 8 6 5 5 6 7 9 5 1 61 69 77 98 116 115 110 90 50 43 43 31 24 21 17 15 13 10 7 6 6 7 8 9 5 1 45 74 84 75 42 16 12 12 11 14 37 63 83 65 22 11 22 31 20 11 13 22 21 17 15 5 53 66 80 76 53 35 35 40 37 35 49 69 81 77 65 55 49 42 34 30 31 35 35 32 23 10 53 52 69 78 68 53 47 50 46 40 44 57 66 74 82 80 64 51 44 40 38 38 40 39 28 10 71 62 74 85 78 63 52 51 48 38 37 46 56 65 73 74 63 57 53 46 39 36 38 39 32 20 95 82 82 83 69 63 63 62 56 43 36 40 52 64 69 67 63 64 58 47 39 36 36 38 35 30 113 100 97 87 68 72 81 73 59 49 46 48 58 69 70 63 61 64 60 51 44 41 39 38 35 30 130 127 120 95 88 121 131 95 55 46 52 57 65 75 76 67 62 64 61 55 50 49 48 43 34 21 137 141 126 101 132 176 181 144 76 40 48 59 69 79 79 72 65 62 58 56 58 63 64 57 40 21 141 133 117 125 170 199 203 186 133 62 47 59 70 80 80 75 67 61 59 63 71 76 76 69 50 33 157 126 102 139 180 200 207 202 173 108 56 54 63 72 76 74 67 62 62 70 78 81 79 74 58 41 178 149 114 141 175 192 203 202 186 148 93 61 53 59 65 65 59 58 66 75 78 75 73 74 61 44 185 170 146 150 165 181 199 201 187 165 132 90 57 49 52 50 46 51 62 69 68 62 59 64 55 39 172 170 163 166 171 179 199 201 187 167 146 113 70 48 46 42 38 43 51 54 53 50 49 55 49 27 152 156 161 186 194 191 197 193 181 161 141 115 79 59 56 50 41 38 39 40 40 41 42 51 47 17 156 163 163 198 208 194 182 167 160 151 137 115 85 72 70 63 49 37 30 30 31 34 37 48 47 18 186 192 185 201 201 177 151 132 131 135 135 120 94 81 79 71 55 38 27 25 27 32 36 47 47 19 199 196 192 191 177 147 118 106 104 116 127 121 102 87 79 69 53 36 26 24 27 34 39 49 47 18 187 176 170 166 161 139 118 109 93 100 117 119 104 84 69 58 45 32 25 25 30 38 44 53 46 16 193 173 158 157 174 168 148 134 110 98 107 116 104 79 57 46 37 29 25 26 31 39 46 52 42 14 229 221 204 197 203 197 173 161 139 109 108 111 103 78 52 39 32 26 24 27 31 38 43 46 35 10 243 243 232 223 219 212 199 193 173 130 110 100 93 77 57 42 31 25 26 30 34 37 38 39 27 7 238 242 236 228 223 220 217 213 192 147 114 94 78 67 57 45 31 26 29 33 35 35 35 35 23 5 222 230 229 223 219 212 209 202 175 141 119 97 75 63 51 38 28 26 29 33 35 34 35 35 22 4 206 203 202 205 201 186 183 171 137 117 111 93 78 70 51 34 26 25 27 31 32 32 34 34 21 3 173 158 153 177 180 167 179 169 121 101 102 86 78 75 57 39 30 26 26 29 31 32 33 32 18 3 117 126 128 162 179 183 190 168 111 93 91 80 79 78 63 46 35 31 30 32 35 36 36 35 20 4 80 109 121 126 131 134 129 130 121 101 94 105 118 109 86 83 95 102 90 74 69 75 74 71 67 43 105 115 136 144 145 144 140 143 135 115 101 100 110 114 112 111 113 110 99 87 80 80 80 79 72 59 114 125 152 164 160 152 145 146 139 121 100 92 98 110 121 125 122 116 106 94 82 77 79 80 73 59 131 140 161 170 165 155 147 144 138 121 99 90 96 106 115 121 120 118 112 101 86 76 76 77 73 66 147 151 164 167 158 153 149 145 138 123 105 96 101 111 117 119 121 122 118 109 97 85 78 75 75 73 151 156 168 167 156 158 158 148 134 122 113 109 115 125 128 125 125 127 124 119 112 106 97 87 77 71 152 162 174 168 165 182 186 164 135 119 116 118 126 135 138 135 133 133 131 127 123 124 123 113 91 69 157 165 171 168 183 203 207 192 157 127 122 127 134 140 141 139 136 134 131 130 132 137 141 138 116 93 173 162 163 180 200 211 215 210 186 150 135 137 139 139 138 137 133 129 129 134 141 147 150 149 135 121 190 161 155 191 209 215 220 217 202 171 145 140 136 133 131 130 125 121 124 134 143 149 151 151 142 131 202 174 166 201 215 217 222 219 206 186 162 144 131 124 122 121 115 114 120 130 137 140 141 145 141 133 211 198 197 211 217 217 222 219 207 193 178 156 132 118 115 111 106 106 113 120 123 122 123 131 133 129 212 212 214 220 221 219 221 217 207 196 185 164 135 116 111 107 101 100 103 105 106 107 108 118 125 119 208 211 214 224 227 222 220 212 202 196 189 171 139 118 115 111 104 98 93 92 93 95 98 110 119 110 212 214 214 225 228 220 212 200 190 191 192 182 154 126 118 115 107 96 86 82 84 89 95 108 120 111 222 221 218 223 221 208 196 183 175 181 190 190 173 143 119 112 104 95 84 79 81 88 95 109 121 112 220 215 211 213 212 197 187 176 160 168 181 189 185 160 125 106 98 91 85 81 83 90 97 110 121 112 208 202 196 200 208 201 196 184 151 154 170 184 187 172 134 100 90 85 82 82 85 92 99 111 119 109 204 199 194 199 213 212 209 193 153 143 159 177 186 178 146 104 84 78 76 78 83 92 100 109 114 104 218 216 212 216 221 218 214 200 164 146 157 172 182 180 161 123 87 73 72 76 82 92 100 106 106 96 230 232 228 228 225 221 218 210 189 167 161 165 173 175 167 143 102 74 72 77 82 90 96 98 93 81 228 235 233 230 226 222 221 217 206 187 168 160 161 162 152 130 98 75 73 77 81 87 91 91 81 68 222 231 233 230 225 219 216 209 197 185 171 160 160 161 141 102 75 68 69 73 79 87 91 89 75 59 221 224 225 225 219 210 209 198 175 170 166 163 170 174 150 100 66 61 64 70 78 89 94 90 73 54 215 211 210 217 215 209 215 208 178 165 167 169 178 179 155 104 68 63 65 69 77 90 97 95 77 58 182 198 196 212 218 220 224 214 187 172 172 175 181 177 151 106 76 68 69 73 80 92 102 102 86 53 58 75 88 99 118 129 124 125 116 94 75 69 71 75 76 77 81 82 76 67 60 59 59 59 57 41 79 84 105 117 126 129 125 126 119 99 77 67 68 72 76 81 85 85 78 68 59 56 56 58 57 54 86 100 126 135 134 130 125 124 119 102 78 64 63 67 74 83 87 86 80 69 58 52 52 54 54 52 93 110 130 135 132 129 124 121 116 103 80 66 64 66 72 79 85 86 82 74 61 52 50 51 51 51 97 110 127 131 127 126 122 118 111 102 88 75 71 74 77 82 86 88 86 82 73 62 54 50 50 50 97 109 126 129 126 128 125 117 107 98 92 86 84 88 91 93 94 94 93 91 88 83 74 63 53 48 97 109 125 128 130 138 137 125 110 98 92 93 95 99 101 103 103 102 100 99 97 98 98 90 69 54 103 109 123 128 136 147 149 139 124 109 101 100 101 101 103 105 105 104 102 101 102 105 109 109 94 80 114 106 117 133 144 152 157 151 138 123 114 110 105 99 98 99 99 98 98 101 105 109 113 116 110 104 126 104 110 144 160 163 168 160 144 128 120 115 106 95 90 90 88 87 90 96 103 108 112 115 113 110 140 117 121 160 176 175 175 165 144 127 121 116 106 93 86 84 81 80 82 88 94 99 102 107 110 110 158 149 152 173 182 179 176 163 143 127 120 114 105 93 86 82 78 76 77 79 83 86 89 96 104 107 168 170 171 179 183 179 172 156 141 132 123 112 100 91 87 84 80 75 72 72 73 76 79 86 98 104 170 172 172 178 181 174 165 149 138 138 136 122 101 89 88 88 84 76 69 66 67 69 73 80 93 101 174 175 173 177 176 165 157 143 133 137 143 140 118 93 84 85 85 78 68 63 64 67 72 80 93 101 176 173 172 174 172 159 152 140 124 129 140 149 140 109 81 77 79 77 69 64 64 68 73 82 95 102 165 161 160 165 169 159 154 141 118 119 131 148 152 128 88 70 72 74 70 67 66 69 74 83 96 102 151 149 148 155 168 164 161 148 115 111 121 141 155 143 104 70 67 68 67 66 66 69 74 81 93 100 146 148 149 156 169 169 168 152 115 104 113 132 151 153 124 81 63 62 61 61 63 68 74 80 91 97 153 157 161 167 172 171 170 155 119 106 113 126 145 155 142 105 70 58 57 58 61 68 75 80 87 91 166 172 175 177 173 169 170 160 137 124 121 125 137 147 146 125 86 59 55 56 60 67 73 75 77 77 168 179 183 180 172 167 168 163 153 143 133 127 131 135 128 109 82 59 54 55 57 65 71 71 68 64 168 180 184 181 172 164 163 155 146 144 136 129 133 136 118 82 59 52 49 51 56 66 71 70 62 57 172 178 181 179 172 163 161 150 133 132 131 133 142 148 129 82 50 46 46 49 56 69 75 72 62 52 173 172 173 176 173 167 168 160 139 131 134 142 152 154 132 84 51 47 47 49 56 70 79 78 67 56 143 163 162 172 176 176 177 170 152 142 145 151 156 152 125 82 55 49 49 51 56 70 82 84 76 50 0 0 0 0 0 0 0 0 0 0 0 0 0 0 0 0 0 0 0 0 0 0 0 0 0 0 0 0 0 0 0 0 0 0 0 0 0 0 0 0 0 0 0 0 0 0 0 0 0 0 0 0 0 0 0 0 0 0 0 0 0 0 0 0 0 0 0 0 0 0 0 0 0 0 0 0 0 0 0 0 0 0 0 0 0 0 0 0 0 0 0 0 0 0 0 0 0 0 0 0 0 0 0 0 0 0 0 0 0 0 0 0 0 0 0 0 0 0 0 0 0 0 0 0 0 0 0 0 0 0 0 0 0 0 0 0 0 0 0 0 0 0 0 0 0 0 0 0 0 0 0 0 0 0 0 0 0 0 0 0 0 0 0 0 0 0 0 0 0 0 0 0 0 0 0 0 0 0 0 0 0 0 0 0 0 0 0 0 0 0 0 0 0 0 0 0 0 0 0 0 0 0 0 0 0 0 0 0 0 0 0 0 0 0 0 0 0 0 0 0 0 0 0 0 0 0 0 0 0 0 0 0 0 0 0 0 0 0 0 0 0 0 0 0 0 0 0 0 0 0 0 0 0 0 0 0 0 0 0 0 0 0 0 0 0 0 0 0 0 0 0 0 0 0 0 0 0 0 0 0 0 0 0 0 0 0 0 0 0 0 0 0 0 0 0 0 0 0 0 0 0 0 0 0 0 0 0 0 0 0 0 0 0 0 0 0 0 0 0 0 0 0 0 0 0 0 0 0 0 0 0 0 0 0 0 0 0 0 0 0 0 0 0 0 0 0 0 0 0 0 0 0 0 0 0 0 0 0 0 0 0 0 0 0 0 0 0 0 0 0 0 0 0 0 0 0 0 0 0 0 0 0 0 0 0 0 0 0 0 0 0 0 0 0 0 0 0 0 0 0 0 0 0 0 0 0 0 0 0 0 0 0 0 0 0 0 0 0 0 0 0 0 0 0 0 0 0 0 0 0 0 0 0 0 0 0 0 0 0 0 0 0 0 0 0 0 0 0 0 0 0 0 0 0 0 0 0 0 0 0 0 0 0 0 0 0 0 0 0 0 0 0 0 0 0 0 0 0 0 0 0 0 0 0 0 0 0 0 0 0 0 0 0 0 0 0 0 0 0 0 0 0 0 0 0 0 0 0 0 0 0 0 0 0 0 0 0 0 0 0 0 0 0 0 0 0 0 0 0 0 0 0 0 0 0 0 0 0 0 0 0 0 0 0 0 0 0 0 0 0 0 0 0 0 0 0 0 0 0 0 0 0 0 0 0 0 0 0 0 0 0 0 0 0 0 0 0 0 0 0 0 0 0 0 0 0 0 0 0 0 0 0 0 0 0 0 0 0 0 0 0 0 0 0 0 0 0 0 0 0 0 0 0 0 0 0 0 0 0 0 0 0 0 0 0 0 0 0 0 0 0 0 0 0 0 0 0 0 0 0 0 0 0 0 0 0 0 0 0 0 0 0 0 0 0 0 0 0 0 0 0 0 0 0 0 0 0 0 0 0 0 0 0 0 0 0 
</DataArray>
<DataArray Name="HRRPUV" NumberOfComponents="1" type="UInt8" format="ascii">