<?xml version="1.0"?>
<VTKFile type="ImageData" version="1.0" byte_order="LittleEndian" header_type="UInt64">
<ImageData WholeExtent="25 50 25 50 1 1"
 Origin="15.0000 15.0000 0.0000" Spacing="0.6000 0.6000 0.6000">
<Piece Extent="25 50 25 50 1 1">
<PointData>
<DataArray Name="TEMPERATURE" NumberOfComponents="1" type="Float32" format="ascii">
56.4 81.0 91.5 97.5 87.0 73.8 67.5 60.9 49.4 42.6 38.6 34.0 32.1 32.0 31.6 31.0 30.6 29.8 28.5 27.5 26.9 26.3 25.5 25.2 24.0 22.7 49.5 58.3 73.7 88.5 85.1 76.7 71.1 58.6 43.2 36.7 34.2 32.7 32.5 32.7 32.5 32.6 32.7 31.9 29.8 28.0 27.3 26.5 25.4 24.6 23.5 22.3 41.7 46.8 56.4 65.4 67.6 66.7 62.6 49.6 36.2 31.5 31.5 32.1 32.5 32.7 33.0 34.1 34.8 33.9 31.3 28.8 27.7 26.9 25.4 24.3 23.3 22.3 38.5 41.6 47.1 47.3 46.6 50.2 50.2 41.6 33.2 31.3 32.9 32.8 32.2 32.6 33.8 35.3 36.0 34.9 32.0 29.4 28.1 26.8 25.1 24.3 23.4 22.5 33.4 35.4 42.7 45.5 41.5 41.7 43.7 39.3 34.8 35.1 35.7 33.1 31.9 33.1 34.9 36.2 36.3 34.5 31.6 29.3 27.9 26.4 25.1 24.6 23.6 22.5 30.3 31.0 36.4 42.1 40.5 38.0 39.3 38.8 38.8 39.6 36.4 32.3 32.1 34.1 35.8 36.4 35.3 32.8 30.2 28.6 27.2 26.2 25.6 24.9 23.6 22.4 32.4 32.0 32.4 34.6 34.7 34.5 38.5 42.0 43.3 40.6 35.0 32.3 33.1 34.7 35.8 35.4 33.2 30.6 28.7 27.7 26.9 26.4 25.8 24.9 23.5 22.3 35.9 35.6 33.1 30.8 30.5 34.5 42.4 46.7 43.9 38.0 34.2 33.8 34.4 35.1 35.1 33.3 30.7 28.6 27.4 27.1 26.5 26.2 25.5 24.5 23.3 22.2 39.2 38.7 35.1 32.0 32.2 37.0 44.4 46.0 40.2 35.3 34.6 35.4 35.5 35.1 33.6 30.9 28.6 27.4 26.8 26.7 26.0 25.3 24.6 24.0 23.1 22.1 42.0 40.4 36.4 34.5 35.2 37.8 41.1 41.1 37.3 35.3 35.6 36.4 36.4 34.6 31.7 29.1 27.7 27.2 26.8 26.3 25.4 24.6 24.1 23.9 23.2 22.1 43.1 40.9 37.9 36.8 37.5 38.7 39.3 38.8 37.5 37.2 37.1 37.4 36.8 33.8 30.3 28.5 27.7 27.3 26.7 25.8 25.0 24.5 24.1 24.3 23.5 22.4 44.0 41.9 40.4 39.1 40.2 42.3 41.3 39.0 37.8 38.2 38.5 38.0 36.1 32.4 29.4 28.4 27.7 27.1 26.2 25.3 24.7 24.7 24.6 25.1 24.2 22.8 45.0 43.5 43.1 42.6 44.7 46.9 43.2 37.6 35.5 37.0 38.0 36.2 33.0 30.0 28.9 28.7 27.6 26.5 25.8 25.2 24.9 25.4 25.5 25.8 24.7 22.8 43.9 43.3 44.0 45.7 47.6 48.7 43.2 34.1 31.4 34.1 35.3 32.7 29.7 28.3 28.9 29.1 27.4 25.9 25.7 25.8 25.7 26.2 26.3 26.2 24.7 22.8 42.2 42.3 42.9 44.6 44.1 45.6 41.6 30.9 28.1 30.8 31.6 29.7 28.4 28.3 29.0 28.6 26.9 26.1 26.6 27.1 26.7 26.7 26.4 25.9 24.4 22.7 41.6 41.9 40.3 38.9 36.4 39.5 38.2 29.6 27.9 28.8 28.9 28.7 28.8 28.8 28.8 27.9 27.1 27.2 28.1 28.7 28.0 27.4 26.5 25.5 24.1 22.9 39.5 41.0 38.3 34.3 30.9 32.8 32.8 29.5 29.4 28.5 28.3 29.3 29.7 29.3 28.8 28.2 28.0 28.3 28.8 29.2 28.5 27.5 26.4 25.1 23.8 22.7 35.7 37.8 36.3 32.8 29.5 28.7 28.9 29.0 29.0 27.8 28.0 29.5 30.1 29.5 28.8 28.6 29.1 29.8 29.8 29.4 28.0 26.8 25.8 24.6 23.4 22.6 32.3 33.0 32.3 31.2 29.6 28.1 27.9 27.8 27.1 26.6 27.7 29.6 30.1 29.3 29.0 29.6 30.5 30.9 30.1 28.9 27.3 26.1 25.3 24.4 23.3 22.4 31.4 30.4 29.3 29.6 30.1 29.4 28.6 27.6 26.4 26.2 27.6 29.7 29.9 29.3 30.7 32.3 32.6 32.1 30.7 28.9 26.8 25.4 24.9 24.5 23.4 22.4 31.7 30.5 28.9 28.8 30.3 30.8 30.0 28.8 27.3 26.8 28.0 30.0 30.2 31.0 33.5 34.7 33.6 32.2 30.7 28.7 26.5 25.1 24.7 24.4 23.5 22.6 31.3 30.4 28.7 28.6 30.3 31.4 31.4 30.8 29.8 28.9 29.3 30.9 31.9 33.4 35.1 34.9 33.3 31.6 29.6 27.3 25.6 24.9 24.7 24.5 23.8 22.9 32.2 31.0 28.4 28.3 31.1 32.9 32.6 31.6 31.6 32.1 31.8 32.8 34.3 34.3 33.0 32.1 31.4 30.3 28.2 25.8 24.7 24.6 24.6 24.5 23.9 23.2 32.8 31.2 27.7 27.4 31.3 34.8 34.0 30.7 30.4 32.8 34.3 35.5 36.0 34.0 31.0 29.9 29.5 28.0 25.9 24.4 24.0 24.3 24.5 24.6 24.2 23.7 31.0 28.4 25.4 25.6 29.6 34.2 33.4 28.3 27.0 30.9 35.1 36.2 34.1 30.9 28.6 27.8 26.9 25.3 23.8 23.2 23.0 23.5 23.8 24.0 24.0 23.3 29.7 26.3 23.7 24.1 28.0 32.7 31.8 26.0 24.7 29.6 34.9 35.4 31.7 27.7 26.1 25.5 24.2 23.0 22.3 22.3 22.2 22.7 22.9 23.3 23.3 22.2 
</DataArray>
</PointData>
</Piece>
</ImageData>
</VTKFile>
