<?xml version="1.0"?>
<VTKFile type="ImageData" version="1.0" byte_order="LittleEndian" header_type="UInt64">
<ImageData WholeExtent="25 50 0 25 1 1"
 Origin="15.0000 0.0000 0.0000" Spacing="0.6000 0.6000 0.6000">
<Piece Extent="25 50 0 25 1 1">
<PointData>
<DataArray Name="TEMPERATURE" NumberOfComponents="1" type="Float32" format="ascii">
20.1 20.1 20.1 20.1 20.1 20.1 20.1 20.1 20.1 20.1 20.1 20.1 20.1 20.1 20.1 20.1 20.1 20.1 20.1 20.0 20.0 20.0 20.0 20.0 20.0 20.0 20.1 20.1 20.1 20.1 20.1 20.1 20.1 20.1 20.1 20.1 20.1 20.1 20.1 20.1 20.1 20.1 20.1 20.1 20.1 20.1 20.0 20.0 20.0 20.0 20.0 20.0 20.1 20.1 20.1 20.1 20.1 20.1 20.1 20.1 20.1 20.1 20.1 20.1 20.1 20.1 20.1 20.1 20.1 20.1 20.1 20.1 20.1 20.0 20.0 20.0 20.0 20.0 20.1 20.1 20.1 20.1 20.1 20.1 20.1 20.1 20.1 20.1 20.1 20.1 20.1 20.1 20.1 20.1 20.1 20.1 20.1 20.1 20.1 20.1 20.0 20.0 20.0 20.0 20.1 20.1 20.1 20.1 20.1 20.3 20.2 20.1 20.1 20.2 20.2 20.1 20.1 20.1 20.1 20.1 20.1 20.1 20.1 20.1 20.1 20.1 20.1 20.0 20.0 20.0 20.1 20.1 20.2 20.6 20.8 22.6 22.9 20.7 20.2 20.2 20.2 20.2 20.1 20.1 20.1 20.1 20.1 20.1 20.1 20.1 20.1 20.1 20.1 20.1 20.0 20.0 20.1 20.2 21.5 25.6 25.6 30.3 32.5 24.2 20.6 20.2 20.2 20.2 20.2 20.1 20.1 20.1 20.1 20.1 20.1 20.1 20.1 20.1 20.1 20.1 20.1 20.0 20.2 21.1 27.7 37.8 36.7 42.7 47.9 33.6 23.2 20.5 20.2 20.2 20.2 20.2 20.1 20.1 20.1 20.1 20.1 20.1 20.1 20.1 20.1 20.1 20.1 20.1 22.9 26.7 39.0 51.1 50.0 56.8 63.5 48.0 31.2 23.7 20.8 20.2 20.2 20.2 20.2 20.2 20.1 20.1 20.1 20.1 20.1 20.1 20.1 20.1 20.1 20.1 34.6 40.2 50.7 58.1 60.0 68.2 73.8 61.2 43.9 33.1 24.7 20.7 20.2 20.2 20.2 20.2 20.2 20.2 20.1 20.1 20.1 20.1 20.1 20.1 20.1 20.1 50.6 54.0 57.5 59.1 63.2 71.7 76.2 67.8 54.5 44.3 32.3 22.9 20.4 20.2 20.2 20.2 20.2 20.2 20.2 20.1 20.1 20.1 20.1 20.1 20.1 20.1 58.2 57.6 56.9 56.7 61.2 68.4 72.1 68.0 59.7 50.8 39.2 26.9 21.0 20.3 20.3 20.2 20.2 20.2 20.2 20.2 20.1 20.1 20.1 20.1 20.1 20.1 57.4 53.5 52.2 53.1 56.5 61.6 63.4 62.6 59.0 52.1 42.9 30.9 22.8 20.6 20.5 20.4 20.3 20.2 20.2 20.2 20.1 20.1 20.1 20.1 20.1 20.1 55.5 50.4 48.6 49.0 49.9 52.8 53.3 53.7 52.1 48.5 43.3 34.4 26.6 23.5 23.6 23.3 21.6 20.4 20.2 20.2 20.2 20.1 20.1 20.1 20.1 20.1 52.6 48.1 44.9 43.0 42.2 44.4 45.7 45.8 43.8 41.4 40.1 36.3 31.7 30.3 32.1 32.1 27.6 22.5 20.4 20.2 20.2 20.1 20.1 20.1 20.1 20.1 45.0 42.8 39.7 36.8 36.5 39.6 42.2 40.8 37.0 34.6 35.0 34.8 34.3 36.5 40.6 41.6 36.1 27.1 21.4 20.2 20.2 20.2 20.1 20.1 20.1 20.1 38.4 39.5 37.0 34.2 34.1 37.6 42.3 39.5 32.6 31.0 31.5 31.2 33.1 37.5 42.5 43.6 38.7 29.5 22.4 20.3 20.2 20.2 20.2 20.1 20.1 20.1 46.4 46.8 42.0 36.0 32.7 36.5 43.7 40.4 32.0 33.2 34.3 30.5 31.6 35.4 38.6 38.8 34.5 27.4 21.9 20.3 20.2 20.2 20.2 20.2 20.1 20.1 67.6 58.0 49.6 39.9 34.4 40.7 49.5 47.3 38.2 38.2 40.4 35.7 32.0 31.6 32.9 33.6 31.0 25.5 21.4 20.3 20.3 20.2 20.2 20.2 20.2 20.1 80.4 68.4 62.7 51.4 44.0 51.3 60.4 61.4 52.5 44.7 43.3 41.4 34.7 28.8 28.7 31.1 30.6 26.0 21.7 20.4 20.3 20.2 20.2 20.2 20.2 20.1 78.0 71.0 70.3 62.1 56.9 63.9 70.5 71.2 64.7 53.1 43.6 41.4 37.4 29.4 27.3 30.2 30.5 26.6 22.2 20.4 20.3 20.2 20.2 20.2 20.1 20.1 67.1 64.7 69.0 68.5 69.1 77.3 85.9 86.9 77.4 61.4 46.0 39.9 36.4 28.7 26.7 29.7 29.7 25.8 21.8 20.4 20.3 20.2 20.2 20.2 20.1 20.1 53.2 54.5 67.2 76.3 83.8 99.1 113.3 109.9 85.5 58.8 44.1 39.8 35.1 27.8 27.0 29.9 29.1 24.6 21.1 20.3 20.3 20.2 20.2 20.2 20.1 20.1 41.9 43.2 51.7 61.8 76.4 94.9 101.0 89.8 69.2 49.8 41.9 40.3 34.7 28.4 28.4 30.9 29.3 24.2 20.9 20.3 20.3 20.2 20.2 20.2 20.1 20.1 34.9 35.9 37.1 42.9 54.9 64.4 62.4 55.1 50.4 45.3 42.0 39.4 33.3 29.8 31.0 32.4 29.9 24.5 20.9 20.3 20.3 20.2 20.2 20.2 20.2 20.1 30.1 33.5 35.0 40.3 46.2 48.5 50.2 47.1 40.3 36.2 35.3 34.3 31.8 33.1 35.6 36.0 32.3 26.0 21.4 20.3 20.2 20.2 20.2 20.2 20.1 20.1 
</DataArray>
</PointData>
</Piece>
</ImageData>
</VTKFile>
