<?xml version="1.0"?>
<VTKFile type="ImageData" version="1.0" byte_order="LittleEndian" header_type="UInt64">
<ImageData WholeExtent="25 50 25 50 0 15"
 Origin="15.0000 15.0000 0.0000" Spacing="0.6000 0.6000 0.6000">
<Piece Extent="25 50 25 50 0 15">
<PointData>
<DataArray Name="TEMPERATURE" NumberOfComponents="1" type="Float32" format="ascii">
21.0 21.7 22.1 22.6 23.7 24.8 24.7 23.7 23.0 22.5 22.1 21.8 21.5 21.3 21.1 21.0 20.9 20.7 20.7 20.6 20.5 20.4 20.4 20.3 20.3 20.2 21.1 21.4 21.8 22.3 22.9 23.7 23.8 23.1 22.5 22.1 21.8 21.5 21.3 21.1 21.0 20.8 20.7 20.6 20.5 20.4 20.4 20.3 20.3 20.3 20.2 20.2 21.0 21.3 21.6 21.9 22.4 22.8 22.9 22.5 22.1 21.8 21.5 21.3 21.1 21.0 20.9 20.7 20.6 20.5 20.5 20.4 20.3 20.3 20.3 20.2 20.2 20.1 20.9 21.1 21.3 21.6 21.9 22.2 22.3 22.1 21.7 21.5 21.3 21.1 21.0 20.9 20.8 20.7 20.6 20.5 20.4 20.4 20.3 20.3 20.2 20.2 20.2 20.1 20.8 21.0 21.2 21.4 21.6 21.8 21.9 21.7 21.5 21.3 21.1 21.0 20.9 20.8 20.7 20.6 20.5 20.5 20.4 20.3 20.3 20.3 20.2 20.2 20.1 20.1 20.7 20.8 21.0 21.2 21.3 21.5 21.5 21.4 21.2 21.1 20.9 20.8 20.8 20.7 20.6 20.5 20.5 20.4 20.4 20.3 20.3 20.2 20.2 20.2 20.1 20.1 20.6 20.7 20.9 21.0 21.1 21.2 21.3 21.2 21.0 20.9 20.8 20.7 20.7 20.6 20.5 20.5 20.4 20.4 20.3 20.3 20.2 20.2 20.2 20.2 20.1 20.1 20.5 20.6 20.7 20.9 21.0 21.0 21.0 21.0 20.9 20.8 20.7 20.6 20.6 20.5 20.5 20.4 20.4 20.3 20.3 20.3 20.2 20.2 20.2 20.2 20.1 20.1 20.5 20.5 20.6 20.7 20.8 20.9 20.9 20.8 20.8 20.7 20.6 20.5 20.5 20.4 20.4 20.4 20.3 20.3 20.3 20.2 20.2 20.2 20.2 20.1 20.1 20.1 20.4 20.5 20.5 20.6 20.7 20.7 20.7 20.7 20.6 20.6 20.5 20.5 20.4 20.4 20.4 20.3 20.3 20.3 20.2 20.2 20.2 20.2 20.1 20.1 20.1 20.1 20.3 20.4 20.5 20.5 20.6 20.6 20.6 20.6 20.5 20.5 20.5 20.4 20.4 20.3 20.3 20.3 20.3 20.2 20.2 20.2 20.2 20.1 20.1 20.1 20.1 20.1 20.3 20.3 20.4 20.5 20.5 20.5 20.5 20.5 20.5 20.4 20.4 20.3 20.3 20.3 20.3 20.2 20.2 20.2 20.2 20.2 20.1 20.1 20.1 20.1 20.1 20.1 20.2 20.3 20.3 20.4 20.4 20.4 20.4 20.4 20.4 20.4 20.3 20.3 20.3 20.3 20.2 20.2 20.2 20.2 20.2 20.1 20.1 20.1 20.1 20.1 20.1 20.1 20.2 20.3 20.3 20.3 20.4 20.4 20.3 20.3 20.3 20.3 20.3 20.3 20.2 20.2 20.2 20.2 20.2 20.2 20.1 20.1 20.1 20.1 20.1 20.1 20.1 20.1 20.2 20.2 20.3 20.3 20.3 20.3 20.3 20.3 20.3 20.3 20.3 20.2 20.2 20.2 20.2 20.2 20.2 20.1 20.1 20.1 20.1 20.1 20.1 20.1 20.1 20.1 20.2 20.2 20.2 20.2 20.3 20.3 20.2 20.2 20.2 20.2 20.2 20.2 20.2 20.2 20.2 20.1 20.1 20.1 20.1 20.1 20.1 20.1 20.1 20.1 20.1 20.1 20.1 20.2 20.2 20.2 20.2 20.2 20.2 20.2 20.2 20.2 20.2 20.2 20.2 20.1 20.1 20.1 20.1 20.1 20.1 20.1 20.1 20.1 20.1 20.1 20.1 20.0 20.1 20.1 20.2 20.2 20.2 20.2 20.2 20.2 20.2 20.2 20.2 20.2 20.1 20.1 20.1 20.1 20.1 20.1 20.1 20.1 20.1 20.1 20.1 20.1 20.0 20.0 20.1 20.1 20.1 20.2 20.2 20.1 20.1 20.1 20.2 20.2 20.2 20.1 20.1 20.1 20.1 20.1 20.1 20.1 20.1 20.1 20.1 20.1 20.1 20.0 20.0 20.0 20.1 20.1 20.1 20.1 20.1 20.1 20.1 20.1 20.1 20.1 20.1 20.1 20.1 20.1 20.1 20.1 20.1 20.1 20.1 20.1 20.1 20.1 20.0 20.0 20.0 20.0 20.1 20.1 20.1 20.1 20.1 20.1 20.1 20.1 20.1 20.1 20.1 20.1 20.1 20.1 20.1 20.1 20.1 20.1 20.1 20.1 20.1 20.0 20.0 20.0 20.0 20.0 20.1 20.1 20.1 20.1 20.1 20.1 20.1 20.1 20.1 20.1 20.1 20.1 20.1 20.1 20.1 20.1 20.1 20.1 20.1 20.0 20.0 20.0 20.0 20.0 20.0 20.0 20.1 20.1 20.1 20.1 20.1 20.1 20.1 20.1 20.1 20.1 20.1 20.1 20.1 20.1 20.1 20.0 20.0 20.0 20.0 20.0 20.0 20.0 20.0 20.0 20.0 20.0 20.0 20.1 20.1 20.1 20.1 20.1 20.1 20.1 20.1 20.1 20.1 20.1 20.1 20.1 20.0 20.0 20.0 20.0 20.0 20.0 20.0 20.0 20.0 20.0 20.0 20.0 20.0 20.1 20.1 20.1 20.1 20.1 20.0 20.0 20.1 20.1 20.1 20.1 20.1 20.0 20.0 20.0 20.0 20.0 20.0 20.0 20.0 20.0 20.0 20.0 20.0 20.0 20.0 20.0 20.1 20.1 20.1 20.0 20.0 20.0 20.1 20.1 20.1 20.1 20.1 20.0 20.0 20.0 20.0 20.0 20.0 20.0 20.0 20.0 20.0 20.0 20.0 20.0 21.1 21.9 22.5 23.3 24.7 25.9 25.9 24.8 23.6 22.9 22.4 22.1 21.7 21.5 21.2 21.1 20.9 20.8 20.7 20.6 20.5 20.4 20.4 20.3 20.2 20.2 21.3 21.7 22.1 22.6 23.4 24.1 24.3 23.7 22.9 22.4 22.0 21.7 21.4 21.2 21.0 20.9 20.7 20.6 20.5 20.4 20.4 20.3 20.3 20.2 20.2 20.1 21.1 21.4 21.8 22.2 22.7 23.2 23.4 23.0 22.4 22.0 21.7 21.5 21.2 21.1 20.9 20.8 20.6 20.5 20.5 20.4 20.3 20.3 20.2 20.2 20.2 20.1 21.0 21.2 21.5 21.8 22.2 22.6 22.7 22.4 22.0 21.7 21.4 21.2 21.1 20.9 20.8 20.7 20.6 20.5 20.4 20.4 20.3 20.3 20.2 20.2 20.1 20.1 20.8 21.0 21.3 21.5 21.8 22.1 22.2 21.9 21.6 21.4 21.2 21.0 20.9 20.8 20.7 20.6 20.5 20.4 20.4 20.3 20.3 20.2 20.2 20.2 20.1 20.1 20.7 20.9 21.1 21.3 21.5 21.7 21.7 21.6 21.3 21.2 21.0 20.9 20.8 20.7 20.6 20.5 20.5 20.4 20.3 20.3 20.3 20.2 20.2 20.2 20.1 20.1 20.6 20.8 20.9 21.1 21.2 21.4 21.4 21.3 21.1 21.0 20.9 20.8 20.7 20.6 20.5 20.5 20.4 20.4 20.3 20.3 20.2 20.2 20.2 20.2 20.1 20.1 20.5 20.7 20.8 20.9 21.0 21.1 21.1 21.0 20.9 20.8 20.7 20.6 20.6 20.5 20.5 20.4 20.4 20.3 20.3 20.2 20.2 20.2 20.2 20.1 20.1 20.1 20.5 20.6 20.7 20.8 20.8 20.9 20.9 20.9 20.8 20.7 20.6 20.5 20.5 20.4 20.4 20.4 20.3 20.3 20.2 20.2 20.2 20.2 20.1 20.1 20.1 20.1 20.4 20.5 20.6 20.6 20.7 20.7 20.7 20.7 20.7 20.6 20.5 20.5 20.4 20.4 20.3 20.3 20.3 20.2 20.2 20.2 20.2 20.1 20.1 20.1 20.1 20.1 20.3 20.4 20.5 20.5 20.6 20.6 20.6 20.6 20.5 20.5 20.4 20.4 20.4 20.3 20.3 20.3 20.2 20.2 20.2 20.2 20.1 20.1 20.1 20.1 20.1 20.1 20.3 20.3 20.4 20.5 20.5 20.5 20.5 20.5 20.5 20.4 20.4 20.3 20.3 20.3 20.3 20.2 20.2 20.2 20.2 20.1 20.1 20.1 20.1 20.1 20.1 20.1 20.2 20.3 20.3 20.4 20.4 20.4 20.4 20.4 20.4 20.4 20.3 20.3 20.3 20.2 20.2 20.2 20.2 20.2 20.1 20.1 20.1 20.1 20.1 20.1 20.1 20.1 20.2 20.2 20.3 20.3 20.3 20.3 20.3 20.3 20.3 20.3 20.3 20.2 20.2 20.2 20.2 20.2 20.2 20.1 20.1 20.1 20.1 20.1 20.1 20.1 20.1 20.1 20.2 20.2 20.2 20.3 20.3 20.3 20.3 20.3 20.3 20.3 20.2 20.2 20.2 20.2 20.2 20.2 20.1 20.1 20.1 20.1 20.1 20.1 20.1 20.1 20.1 20.1 20.1 20.2 20.2 20.2 20.2 20.2 20.2 20.2 20.2 20.2 20.2 20.2 20.2 20.1 20.1 20.1 20.1 20.1 20.1 20.1 20.1 20.1 20.1 20.1 20.1 20.0 20.1 20.1 20.2 20.2 20.2 20.2 20.2 20.2 20.2 20.2 20.2 20.2 20.1 20.1 20.1 20.1 20.1 20.1 20.1 20.1 20.1 20.1 20.1 20.1 20.0 20.0 20.1 20.1 20.1 20.2 20.2 20.2 20.2 20.2 20.2 20.2 20.2 20.1 20.1 20.1 20.1 20.1 20.1 20.1 20.1 20.1 20.1 20.1 20.1 20.0 20.0 20.0 20.1 20.1 20.1 20.1 20.1 20.1 20.1 20.1 20.1 20.1 20.1 20.1 20.1 20.1 20.1 20.1 20.1 20.1 20.1 20.1 20.1 20.1 20.0 20.0 20.0 20.0 20.1 20.1 20.1 20.1 20.1 20.1 20.1 20.1 20.1 20.1 20.1 20.1 20.1 20.1 20.1 20.1 20.1 20.1 20.1 20.1 20.0 20.0 20.0 20.0 20.0 20.0 20.1 20.1 20.1 20.1 20.1 20.1 20.1 20.1 20.1 20.1 20.1 20.1 20.1 20.1 20.1 20.1 20.1 20.1 20.1 20.0 20.0 20.0 20.0 20.0 20.0 20.0 20.1 20.1 20.1 20.1 20.1 20.1 20.1 20.1 20.1 20.1 20.1 20.1 20.1 20.1 20.1 20.1 20.0 20.0 20.0 20.0 20.0 20.0 20.0 20.0 20.0 20.0 20.0 20.1 20.1 20.1 20.1 20.1 20.1 20.1 20.1 20.1 20.1 20.1 20.1 20.1 20.0 20.0 20.0 20.0 20.0 20.0 20.0 20.0 20.0 20.0 20.0 20.0 20.0 20.1 20.1 20.1 20.1 20.1 20.1 20.1 20.1 20.1 20.1 20.1 20.1 20.0 20.0 20.0 20.0 20.0 20.0 20.0 20.0 20.0 20.0 20.0 20.0 20.0 20.0 20.0 20.1 20.1 20.1 20.0 20.0 20.0 20.1 20.1 20.1 20.1 20.0 20.0 20.0 20.0 20.0 20.0 20.0 20.0 20.0 20.0 20.0 20.0 20.0 20.0 20.0 20.0 20.0 20.0 20.0 20.0 20.0 20.0 20.0 20.1 20.1 20.1 20.0 20.0 20.0 20.0 20.0 20.0 20.0 20.0 20.0 20.0 20.0 20.0 20.0 20.0 21.3 22.3 24.0 27.0 28.5 28.4 28.1 26.5 24.6 23.6 23.0 22.4 22.0 21.7 21.4 21.1 21.0 20.8 20.7 20.6 20.5 20.4 20.3 20.3 20.2 20.2 21.5 21.9 22.6 23.6 24.4 25.0 25.3 24.7 23.6 22.9 22.4 22.0 21.6 21.3 21.1 20.9 20.8 20.6 20.5 20.4 20.4 20.3 20.3 20.2 20.2 20.1 21.3 21.6 22.1 22.6 23.2 23.8 24.1 23.7 22.9 22.4 22.0 21.7 21.4 21.2 21.0 20.8 20.7 20.6 20.5 20.4 20.3 20.3 20.2 20.2 20.1 20.1 21.1 21.4 21.7 22.1 22.6 23.0 23.2 22.9 22.3 21.9 21.6 21.4 21.2 21.0 20.8 20.7 20.6 20.5 20.4 20.3 20.3 20.2 20.2 20.2 20.1 20.1 20.9 21.2 21.4 21.7 22.1 22.4 22.5 22.3 21.9 21.6 21.3 21.1 21.0 20.8 20.7 20.6 20.5 20.4 20.4 20.3 20.3 20.2 20.2 20.2 20.1 20.1 20.8 21.0 21.2 21.4 21.7 21.9 22.0 21.8 21.5 21.3 21.1 20.9 20.8 20.7 20.6 20.5 20.4 20.4 20.3 20.3 20.2 20.2 20.2 20.1 20.1 20.1 20.7 20.8 21.0 21.2 21.4 21.5 21.5 21.4 21.2 21.1 20.9 20.8 20.7 20.6 20.5 20.5 20.4 20.3 20.3 20.2 20.2 20.2 20.2 20.1 20.1 20.1 20.6 20.8 20.9 21.0 21.1 21.2 21.2 21.1 21.0 20.9 20.8 20.7 20.6 20.5 20.4 20.4 20.3 20.3 20.3 20.2 20.2 20.2 20.1 20.1 20.1 20.1 20.6 20.8 21.0 21.0 20.9 21.0 21.0 20.9 20.8 20.7 20.6 20.5 20.5 20.4 20.4 20.3 20.3 20.3 20.2 20.2 20.2 20.1 20.1 20.1 20.1 20.1 20.5 20.7 20.9 20.9 20.7 20.8 20.8 20.7 20.7 20.6 20.5 20.5 20.4 20.4 20.3 20.3 20.3 20.2 20.2 20.2 20.1 20.1 20.1 20.1 20.1 20.1 20.4 20.5 20.7 20.7 20.6 20.6 20.6 20.6 20.5 20.5 20.4 20.4 20.3 20.3 20.3 20.2 20.2 20.2 20.2 20.1 20.1 20.1 20.1 20.1 20.1 20.1 20.3 20.4 20.6 20.6 20.5 20.5 20.5 20.5 20.5 20.4 20.4 20.3 20.3 20.3 20.2 20.2 20.2 20.2 20.1 20.1 20.1 20.1 20.1 20.1 20.1 20.1 20.3 20.4 20.5 20.5 20.4 20.4 20.4 20.4 20.4 20.3 20.3 20.3 20.2 20.2 20.2 20.2 20.2 20.1 20.1 20.1 20.1 20.1 20.1 20.1 20.1 20.1 20.2 20.3 20.4 20.4 20.3 20.3 20.3 20.3 20.3 20.3 20.3 20.2 20.2 20.2 20.2 20.2 20.1 20.1 20.1 20.1 20.1 20.1 20.1 20.1 20.0 20.0 20.2 20.2 20.3 20.3 20.3 20.3 20.3 20.3 20.3 20.2 20.2 20.2 20.2 20.2 20.1 20.1 20.1 20.1 20.1 20.1 20.1 20.1 20.1 20.1 20.0 20.0 20.1 20.2 20.2 20.2 20.2 20.2 20.2 20.2 20.2 20.2 20.2 20.2 20.1 20.1 20.1 20.1 20.1 20.1 20.1 20.1 20.1 20.1 20.1 20.0 20.0 20.0 20.1 20.1 20.1 20.2 20.2 20.2 20.2 20.2 20.2 20.2 20.2 20.1 20.1 20.1 20.1 20.1 20.1 20.1 20.1 20.1 20.1 20.1 20.0 20.0 20.0 20.0 20.1 20.1 20.1 20.1 20.2 20.1 20.1 20.1 20.1 20.1 20.1 20.1 20.1 20.1 20.1 20.1 20.1 20.1 20.1 20.1 20.0 20.0 20.0 20.0 20.0 20.0 20.1 20.1 20.1 20.1 20.1 20.1 20.1 20.1 20.1 20.1 20.1 20.1 20.1 20.1 20.1 20.1 20.1 20.1 20.1 20.0 20.0 20.0 20.0 20.0 20.0 20.0 20.1 20.1 20.1 20.1 20.1 20.1 20.1 20.1 20.1 20.1 20.1 20.1 20.1 20.1 20.1 20.1 20.1 20.0 20.0 20.0 20.0 20.0 20.0 20.0 20.0 20.0 20.0 20.1 20.1 20.1 20.1 20.1 20.1 20.1 20.1 20.1 20.1 20.1 20.1 20.1 20.1 20.0 20.0 20.0 20.0 20.0 20.0 20.0 20.0 20.0 20.0 20.0 20.0 20.0 20.1 20.1 20.1 20.1 20.1 20.1 20.1 20.1 20.1 20.1 20.1 20.0 20.0 20.0 20.0 20.0 20.0 20.0 20.0 20.0 20.0 20.0 20.0 20.0 20.0 20.0 20.1 20.1 20.1 20.1 20.1 20.1 20.1 20.1 20.1 20.1 20.0 20.0 20.0 20.0 20.0 20.0 20.0 20.0 20.0 20.0 20.0 20.0 20.0 20.0 20.0 20.0 20.0 20.0 20.0 20.0 20.0 20.0 20.0 20.1 20.1 20.0 20.0 20.0 20.0 20.0 20.0 20.0 20.0 20.0 20.0 20.0 20.0 20.0 20.0 20.0 20.0 20.0 20.0 20.0 20.0 20.0 20.0 20.0 20.0 20.0 20.0 20.0 20.0 20.0 20.0 20.0 20.0 20.0 20.0 20.0 20.0 20.0 20.0 20.0 20.0 20.0 20.0 20.0 20.0 20.0 20.0 20.0 20.0 20.0 20.0 20.0 20.0 20.0 20.0 20.0 20.0 20.0 20.0 20.0 20.0 20.0 20.0 20.0 20.0 20.0 20.0 20.0 21.4 23.0 27.0 33.8 34.0 30.0 29.2 28.2 25.9 23.8 23.1 22.6 22.1 21.7 21.4 21.2 21.0 20.8 20.7 20.6 20.5 20.4 20.3 20.3 20.2 20.2 21.5 22.1 23.4 24.9 25.1 25.2 25.7 25.1 23.8 23.0 22.4 22.0 21.7 21.4 21.1 20.9 20.8 20.6 20.5 20.4 20.4 20.3 20.3 20.2 20.2 20.1 21.3 21.6 22.1 22.7 23.2 23.8 24.2 23.8 23.0 22.4 22.0 21.7 21.4 21.2 21.0 20.8 20.7 20.6 20.5 20.4 20.3 20.3 20.2 20.2 20.1 20.1 21.1 21.4 21.7 22.1 22.5 22.9 23.2 22.9 22.4 21.9 21.6 21.4 21.2 21.0 20.8 20.7 20.6 20.5 20.4 20.3 20.3 20.2 20.2 20.2 20.1 20.1 20.9 21.2 21.4 21.7 22.0 22.3 22.5 22.3 21.9 21.6 21.3 21.2 21.0 20.9 20.7 20.6 20.5 20.4 20.4 20.3 20.3 20.2 20.2 20.1 20.1 20.1 20.8 21.0 21.2 21.4 21.6 21.8 22.0 21.8 21.5 21.3 21.1 21.0 20.8 20.7 20.6 20.5 20.5 20.4 20.3 20.3 20.2 20.2 20.2 20.1 20.1 20.1 20.7 20.9 21.1 21.2 21.4 21.5 21.5 21.4 21.2 21.1 20.9 20.8 20.7 20.6 20.5 20.5 20.4 20.3 20.3 20.2 20.2 20.2 20.1 20.1 20.1 20.1 20.7 20.9 21.1 21.1 21.1 21.2 21.2 21.2 21.0 20.9 20.8 20.7 20.6 20.5 20.5 20.4 20.3 20.3 20.3 20.2 20.2 20.2 20.1 20.1 20.1 20.1 20.8 21.0 21.3 21.2 20.9 21.0 21.0 20.9 20.8 20.7 20.6 20.6 20.5 20.4 20.4 20.3 20.3 20.3 20.2 20.2 20.2 20.1 20.1 20.1 20.1 20.1 20.7 20.8 21.1 21.1 20.8 20.8 20.8 20.7 20.7 20.6 20.5 20.5 20.4 20.4 20.3 20.3 20.3 20.2 20.2 20.2 20.1 20.1 20.1 20.1 20.1 20.1 20.5 20.5 20.7 20.8 20.7 20.6 20.6 20.6 20.6 20.5 20.4 20.4 20.3 20.3 20.3 20.2 20.2 20.2 20.2 20.1 20.1 20.1 20.1 20.1 20.1 20.1 20.4 20.4 20.5 20.7 20.5 20.5 20.5 20.5 20.5 20.4 20.4 20.3 20.3 20.3 20.2 20.2 20.2 20.2 20.1 20.1 20.1 20.1 20.1 20.1 20.1 20.1 20.3 20.3 20.5 20.6 20.4 20.4 20.4 20.4 20.4 20.4 20.3 20.3 20.2 20.2 20.2 20.2 20.2 20.1 20.1 20.1 20.1 20.1 20.1 20.1 20.1 20.0 20.3 20.3 20.4 20.5 20.4 20.3 20.3 20.3 20.3 20.3 20.3 20.2 20.2 20.2 20.2 20.2 20.1 20.1 20.1 20.1 20.1 20.1 20.1 20.1 20.0 20.0 20.2 20.2 20.3 20.4 20.3 20.3 20.3 20.3 20.3 20.2 20.2 20.2 20.2 20.2 20.1 20.1 20.1 20.1 20.1 20.1 20.1 20.1 20.1 20.0 20.0 20.0 20.1 20.1 20.2 20.3 20.2 20.2 20.2 20.2 20.2 20.2 20.2 20.2 20.1 20.1 20.1 20.1 20.1 20.1 20.1 20.1 20.1 20.1 20.0 20.0 20.0 20.0 20.0 20.1 20.1 20.2 20.2 20.2 20.2 20.2 20.2 20.2 20.2 20.1 20.1 20.1 20.1 20.1 20.1 20.1 20.1 20.1 20.1 20.0 20.0 20.0 20.0 20.0 20.0 20.1 20.1 20.1 20.2 20.1 20.1 20.1 20.1 20.1 20.1 20.1 20.1 20.1 20.1 20.1 20.1 20.1 20.1 20.1 20.0 20.0 20.0 20.0 20.0 20.0 20.0 20.0 20.1 20.1 20.1 20.1 20.1 20.1 20.1 20.1 20.1 20.1 20.1 20.1 20.1 20.1 20.1 20.1 20.0 20.0 20.0 20.0 20.0 20.0 20.0 20.0 20.0 20.0 20.1 20.1 20.1 20.1 20.1 20.1 20.1 20.1 20.1 20.1 20.1 20.1 20.1 20.1 20.0 20.0 20.0 20.0 20.0 20.0 20.0 20.0 20.0 20.0 20.0 20.0 20.1 20.1 20.1 20.1 20.1 20.1 20.1 20.1 20.1 20.1 20.1 20.1 20.0 20.0 20.0 20.0 20.0 20.0 20.0 20.0 20.0 20.0 20.0 20.0 20.0 20.0 20.1 20.1 20.1 20.1 20.1 20.1 20.1 20.1 20.1 20.1 20.1 20.0 20.0 20.0 20.0 20.0 20.0 20.0 20.0 20.0 20.0 20.0 20.0 20.0 20.0 20.0 20.0 20.1 20.1 20.1 20.0 20.0 20.1 20.1 20.1 20.0 20.0 20.0 20.0 20.0 20.0 20.0 20.0 20.0 20.0 20.0 20.0 20.0 20.0 20.0 20.0 20.0 20.0 20.0 20.0 20.0 20.0 20.0 20.0 20.0 20.0 20.0 20.0 20.0 20.0 20.0 20.0 20.0 20.0 20.0 20.0 20.0 20.0 20.0 20.0 20.0 20.0 20.0 20.0 20.0 20.0 20.0 20.0 20.0 20.0 20.0 20.0 20.0 20.0 20.0 20.0 20.0 20.0 20.0 20.0 20.0 20.0 20.0 20.0 20.0 20.0 20.0 20.0 20.0 20.0 20.0 20.0 20.0 20.0 20.0 20.0 20.0 20.0 20.0 20.0 20.0 20.0 20.0 20.0 20.0 20.0 20.0 20.0 20.0 20.0 20.0 20.0 20.0 21.9 27.3 39.5 51.8 45.2 31.3 28.5 28.8 26.4 23.6 22.9 22.4 22.0 21.7 21.4 21.2 21.0 20.8 20.7 20.6 20.5 20.4 20.4 20.3 20.2 20.2 21.4 22.5 25.3 26.9 25.6 24.6 25.0 24.7 23.5 22.7 22.3 21.9 21.6 21.3 21.1 20.9 20.8 20.7 20.5 20.5 20.4 20.3 20.3 20.2 20.2 20.2 21.2 21.5 22.0 22.5 22.8 23.2 23.6 23.4 22.7 22.2 21.9 21.6 21.4 21.1 21.0 20.8 20.7 20.6 20.5 20.4 20.3 20.3 20.2 20.2 20.2 20.1 21.0 21.3 21.6 21.9 22.2 22.5 22.8 22.7 22.2 21.8 21.5 21.3 21.1 21.0 20.8 20.7 20.6 20.5 20.4 20.4 20.3 20.3 20.2 20.2 20.1 20.1 20.9 21.1 21.3 21.6 21.8 22.0 22.2 22.1 21.8 21.5 21.3 21.1 21.0 20.8 20.7 20.6 20.5 20.5 20.4 20.3 20.3 20.2 20.2 20.2 20.1 20.1 20.8 20.9 21.1 21.3 21.5 21.6 21.8 21.7 21.5 21.2 21.1 20.9 20.8 20.7 20.6 20.5 20.5 20.4 20.3 20.3 20.3 20.2 20.2 20.2 20.1 20.1 20.7 20.9 21.0 21.1 21.2 21.3 21.4 21.4 21.2 21.0 20.9 20.8 20.7 20.6 20.5 20.5 20.4 20.4 20.3 20.3 20.2 20.2 20.2 20.1 20.1 20.1 20.7 20.9 21.0 21.0 21.0 21.1 21.1 21.1 21.0 20.9 20.8 20.7 20.6 20.5 20.5 20.4 20.4 20.3 20.3 20.2 20.2 20.2 20.1 20.1 20.1 20.1 20.8 20.9 21.1 21.1 20.9 20.9 20.9 20.9 20.8 20.7 20.6 20.6 20.5 20.5 20.4 20.4 20.3 20.3 20.2 20.2 20.2 20.2 20.1 20.1 20.1 20.1 20.6 20.7 20.9 21.0 20.8 20.8 20.8 20.7 20.7 20.6 20.5 20.5 20.4 20.4 20.3 20.3 20.3 20.2 20.2 20.2 20.2 20.1 20.1 20.1 20.1 20.1 20.4 20.4 20.5 20.7 20.7 20.6 20.6 20.6 20.6 20.5 20.5 20.4 20.4 20.3 20.3 20.3 20.2 20.2 20.2 20.2 20.1 20.1 20.1 20.1 20.1 20.1 20.3 20.3 20.4 20.6 20.6 20.5 20.5 20.5 20.5 20.4 20.4 20.3 20.3 20.3 20.3 20.2 20.2 20.2 20.2 20.1 20.1 20.1 20.1 20.1 20.1 20.1 20.3 20.3 20.4 20.5 20.5 20.4 20.4 20.4 20.4 20.4 20.3 20.3 20.3 20.2 20.2 20.2 20.2 20.2 20.1 20.1 20.1 20.1 20.1 20.1 20.1 20.1 20.2 20.2 20.3 20.4 20.4 20.4 20.3 20.3 20.3 20.3 20.3 20.2 20.2 20.2 20.2 20.2 20.2 20.1 20.1 20.1 20.1 20.1 20.1 20.1 20.1 20.0 20.2 20.2 20.3 20.4 20.3 20.3 20.3 20.3 20.3 20.3 20.2 20.2 20.2 20.2 20.2 20.1 20.1 20.1 20.1 20.1 20.1 20.1 20.1 20.1 20.0 20.0 20.1 20.1 20.2 20.3 20.3 20.2 20.2 20.2 20.2 20.2 20.2 20.2 20.2 20.1 20.1 20.1 20.1 20.1 20.1 20.1 20.1 20.1 20.1 20.0 20.0 20.0 20.0 20.1 20.1 20.2 20.2 20.2 20.2 20.2 20.2 20.2 20.2 20.1 20.1 20.1 20.1 20.1 20.1 20.1 20.1 20.1 20.1 20.1 20.0 20.0 20.0 20.0 20.0 20.1 20.1 20.2 20.2 20.2 20.2 20.2 20.2 20.2 20.1 20.1 20.1 20.1 20.1 20.1 20.1 20.1 20.1 20.1 20.1 20.0 20.0 20.0 20.0 20.0 20.0 20.1 20.1 20.1 20.1 20.1 20.1 20.1 20.1 20.1 20.1 20.1 20.1 20.1 20.1 20.1 20.1 20.1 20.1 20.1 20.0 20.0 20.0 20.0 20.0 20.0 20.0 20.1 20.1 20.1 20.1 20.1 20.1 20.1 20.1 20.1 20.1 20.1 20.1 20.1 20.1 20.1 20.1 20.1 20.0 20.0 20.0 20.0 20.0 20.0 20.0 20.0 20.0 20.0 20.1 20.1 20.1 20.1 20.1 20.1 20.1 20.1 20.1 20.1 20.1 20.1 20.1 20.1 20.0 20.0 20.0 20.0 20.0 20.0 20.0 20.0 20.0 20.0 20.0 20.0 20.1 20.1 20.1 20.1 20.1 20.1 20.1 20.1 20.1 20.1 20.1 20.0 20.0 20.0 20.0 20.0 20.0 20.0 20.0 20.0 20.0 20.0 20.0 20.0 20.0 20.0 20.1 20.1 20.1 20.1 20.1 20.1 20.1 20.1 20.1 20.1 20.0 20.0 20.0 20.0 20.0 20.0 20.0 20.0 20.0 20.0 20.0 20.0 20.0 20.0 20.0 20.0 20.1 20.1 20.1 20.0 20.0 20.0 20.1 20.1 20.1 20.0 20.0 20.0 20.0 20.0 20.0 20.0 20.0 20.0 20.0 20.0 20.0 20.0 20.0 20.0 20.0 20.0 20.0 20.0 20.0 20.0 20.0 20.0 20.0 20.0 20.0 20.0 20.0 20.0 20.0 20.0 20.0 20.0 20.0 20.0 20.0 20.0 20.0 20.0 20.0 20.0 20.0 20.0 20.0 20.0 20.0 20.0 20.0 20.0 20.0 20.0 20.0 20.0 20.0 20.0 20.0 20.0 20.0 20.0 20.0 20.0 20.0 20.0 20.0 20.0 20.0 20.0 25.0 37.3 57.7 66.4 47.8 29.7 26.9 27.3 25.4 23.1 22.4 22.1 21.8 21.5 21.3 21.1 20.9 20.8 20.7 20.6 20.5 20.4 20.4 20.3 20.3 20.2 21.5 22.9 26.6 27.8 25.2 23.8 24.0 23.8 23.0 22.3 21.9 21.7 21.4 21.2 21.0 20.9 20.7 20.6 20.5 20.5 20.4 20.3 20.3 20.3 20.2 20.2 21.1 21.4 21.8 22.1 22.3 22.6 22.9 22.8 22.4 21.9 21.6 21.4 21.2 21.0 20.9 20.8 20.7 20.6 20.5 20.4 20.4 20.3 20.3 20.2 20.2 20.2 20.9 21.2 21.4 21.6 21.9 22.1 22.3 22.3 21.9 21.6 21.4 21.2 21.0 20.9 20.8 20.7 20.6 20.5 20.4 20.4 20.3 20.3 20.2 20.2 20.2 20.1 20.8 21.0 21.2 21.4 21.6 21.7 21.9 21.8 21.6 21.3 21.1 21.0 20.9 20.8 20.7 20.6 20.5 20.5 20.4 20.3 20.3 20.3 20.2 20.2 20.2 20.1 20.7 20.9 21.0 21.2 21.3 21.4 21.5 21.5 21.3 21.1 21.0 20.9 20.8 20.7 20.6 20.5 20.5 20.4 20.4 20.3 20.3 20.2 20.2 20.2 20.1 20.1 20.6 20.8 20.9 21.0 21.1 21.2 21.2 21.2 21.1 20.9 20.8 20.7 20.7 20.6 20.5 20.5 20.4 20.4 20.3 20.3 20.2 20.2 20.2 20.2 20.1 20.1 20.6 20.7 20.8 20.9 20.9 21.0 21.0 21.0 20.9 20.8 20.7 20.6 20.6 20.5 20.5 20.4 20.4 20.3 20.3 20.3 20.2 20.2 20.2 20.1 20.1 20.1 20.6 20.7 20.8 20.8 20.8 20.8 20.8 20.8 20.8 20.7 20.6 20.5 20.5 20.4 20.4 20.4 20.3 20.3 20.3 20.2 20.2 20.2 20.2 20.1 20.1 20.1 20.5 20.6 20.7 20.7 20.7 20.7 20.7 20.7 20.6 20.6 20.5 20.5 20.4 20.4 20.4 20.3 20.3 20.3 20.2 20.2 20.2 20.2 20.1 20.1 20.1 20.1 20.3 20.4 20.6 20.6 20.6 20.6 20.6 20.6 20.6 20.5 20.5 20.4 20.4 20.3 20.3 20.3 20.3 20.2 20.2 20.2 20.2 20.1 20.1 20.1 20.1 20.1 20.3 20.4 20.5 20.5 20.5 20.5 20.5 20.5 20.5 20.4 20.4 20.3 20.3 20.3 20.3 20.2 20.2 20.2 20.2 20.2 20.1 20.1 20.1 20.1 20.1 20.1 20.2 20.3 20.4 20.5 20.4 20.4 20.4 20.4 20.4 20.4 20.3 20.3 20.3 20.2 20.2 20.2 20.2 20.2 20.2 20.1 20.1 20.1 20.1 20.1 20.1 20.1 20.2 20.3 20.4 20.4 20.4 20.4 20.3 20.3 20.3 20.3 20.3 20.3 20.2 20.2 20.2 20.2 20.2 20.2 20.1 20.1 20.1 20.1 20.1 20.1 20.1 20.1 20.2 20.2 20.3 20.3 20.3 20.3 20.3 20.3 20.3 20.3 20.3 20.2 20.2 20.2 20.2 20.2 20.1 20.1 20.1 20.1 20.1 20.1 20.1 20.1 20.1 20.1 20.1 20.2 20.2 20.3 20.3 20.3 20.2 20.2 20.3 20.2 20.2 20.2 20.2 20.2 20.1 20.1 20.1 20.1 20.1 20.1 20.1 20.1 20.1 20.1 20.1 20.0 20.1 20.1 20.2 20.2 20.2 20.2 20.2 20.2 20.2 20.2 20.2 20.2 20.1 20.1 20.1 20.1 20.1 20.1 20.1 20.1 20.1 20.1 20.1 20.1 20.0 20.0 20.1 20.1 20.1 20.2 20.2 20.2 20.2 20.2 20.2 20.2 20.2 20.1 20.1 20.1 20.1 20.1 20.1 20.1 20.1 20.1 20.1 20.1 20.1 20.0 20.0 20.0 20.1 20.1 20.1 20.2 20.2 20.1 20.1 20.1 20.2 20.2 20.1 20.1 20.1 20.1 20.1 20.1 20.1 20.1 20.1 20.1 20.1 20.0 20.0 20.0 20.0 20.0 20.1 20.1 20.1 20.1 20.1 20.1 20.1 20.1 20.1 20.1 20.1 20.1 20.1 20.1 20.1 20.1 20.1 20.1 20.1 20.1 20.0 20.0 20.0 20.0 20.0 20.0 20.0 20.1 20.1 20.1 20.1 20.1 20.1 20.1 20.1 20.1 20.1 20.1 20.1 20.1 20.1 20.1 20.1 20.1 20.1 20.0 20.0 20.0 20.0 20.0 20.0 20.0 20.0 20.1 20.1 20.1 20.1 20.1 20.1 20.1 20.1 20.1 20.1 20.1 20.1 20.1 20.1 20.1 20.1 20.0 20.0 20.0 20.0 20.0 20.0 20.0 20.0 20.0 20.0 20.1 20.1 20.1 20.1 20.1 20.1 20.1 20.1 20.1 20.1 20.1 20.1 20.1 20.0 20.0 20.0 20.0 20.0 20.0 20.0 20.0 20.0 20.0 20.0 20.0 20.0 20.0 20.1 20.1 20.1 20.1 20.0 20.1 20.1 20.1 20.1 20.1 20.1 20.0 20.0 20.0 20.0 20.0 20.0 20.0 20.0 20.0 20.0 20.0 20.0 20.0 20.0 20.0 20.1 20.1 20.1 20.0 20.0 20.0 20.1 20.1 20.1 20.1 20.0 20.0 20.0 20.0 20.0 20.0 20.0 20.0 20.0 20.0 20.0 20.0 20.0 20.0 20.0 20.0 20.1 20.1 20.0 20.0 20.0 20.0 20.1 20.1 20.1 20.0 20.0 20.0 20.0 20.0 20.0 20.0 20.0 20.0 20.0 20.0 20.0 20.0 20.0 20.0 28.2 46.2 66.8 62.8 37.8 26.2 26.0 26.1 24.4 22.6 22.0 21.7 21.5 21.3 21.1 20.9 20.8 20.7 20.6 20.5 20.5 20.4 20.4 20.3 20.3 20.3 21.6 23.8 26.9 26.7 23.9 22.9 23.2 23.0 22.4 21.9 21.6 21.4 21.2 21.0 20.9 20.8 20.7 20.6 20.5 20.4 20.4 20.3 20.3 20.3 20.2 20.2 21.0 21.2 21.6 21.8 21.9 22.2 22.4 22.3 22.0 21.6 21.4 21.2 21.1 20.9 20.8 20.7 20.6 20.5 20.4 20.4 20.3 20.3 20.3 20.2 20.2 20.2 20.8 21.0 21.2 21.4 21.5 21.7 21.9 21.9 21.6 21.4 21.2 21.0 20.9 20.8 20.7 20.6 20.5 20.5 20.4 20.4 20.3 20.3 20.2 20.2 20.2 20.2 20.7 20.9 21.0 21.2 21.3 21.4 21.5 21.5 21.3 21.1 21.0 20.9 20.8 20.7 20.6 20.6 20.5 20.4 20.4 20.3 20.3 20.3 20.2 20.2 20.2 20.1 20.6 20.8 20.9 21.0 21.1 21.2 21.3 21.2 21.1 21.0 20.8 20.7 20.7 20.6 20.5 20.5 20.4 20.4 20.3 20.3 20.3 20.2 20.2 20.2 20.2 20.1 20.5 20.7 20.8 20.8 20.9 21.0 21.0 21.0 20.9 20.8 20.7 20.6 20.6 20.5 20.5 20.4 20.4 20.4 20.3 20.3 20.2 20.2 20.2 20.2 20.1 20.1 20.5 20.6 20.7 20.7 20.8 20.8 20.9 20.8 20.8 20.7 20.6 20.6 20.5 20.5 20.4 20.4 20.4 20.3 20.3 20.3 20.2 20.2 20.2 20.2 20.1 20.1 20.4 20.5 20.6 20.6 20.7 20.7 20.7 20.7 20.7 20.6 20.5 20.5 20.4 20.4 20.4 20.3 20.3 20.3 20.3 20.2 20.2 20.2 20.2 20.1 20.1 20.1 20.4 20.4 20.5 20.5 20.6 20.6 20.6 20.6 20.6 20.5 20.5 20.4 20.4 20.4 20.3 20.3 20.3 20.3 20.2 20.2 20.2 20.2 20.1 20.1 20.1 20.1 20.3 20.4 20.4 20.5 20.5 20.5 20.5 20.5 20.5 20.5 20.4 20.4 20.3 20.3 20.3 20.3 20.2 20.2 20.2 20.2 20.2 20.1 20.1 20.1 20.1 20.1 20.3 20.3 20.4 20.4 20.4 20.4 20.4 20.4 20.4 20.4 20.4 20.3 20.3 20.3 20.3 20.2 20.2 20.2 20.2 20.2 20.1 20.1 20.1 20.1 20.1 20.1 20.2 20.3 20.3 20.4 20.4 20.4 20.4 20.4 20.4 20.4 20.3 20.3 20.3 20.2 20.2 20.2 20.2 20.2 20.2 20.1 20.1 20.1 20.1 20.1 20.1 20.1 20.2 20.2 20.3 20.3 20.3 20.3 20.3 20.3 20.3 20.3 20.3 20.3 20.2 20.2 20.2 20.2 20.2 20.2 20.1 20.1 20.1 20.1 20.1 20.1 20.1 20.1 20.2 20.2 20.2 20.3 20.3 20.3 20.3 20.3 20.3 20.3 20.3 20.2 20.2 20.2 20.2 20.2 20.2 20.1 20.1 20.1 20.1 20.1 20.1 20.1 20.1 20.1 20.1 20.2 20.2 20.3 20.3 20.2 20.2 20.2 20.2 20.2 20.2 20.2 20.2 20.2 20.2 20.1 20.1 20.1 20.1 20.1 20.1 20.1 20.1 20.1 20.1 20.1 20.1 20.2 20.2 20.2 20.2 20.2 20.2 20.2 20.2 20.2 20.2 20.2 20.2 20.1 20.1 20.1 20.1 20.1 20.1 20.1 20.1 20.1 20.1 20.1 20.1 20.1 20.1 20.1 20.2 20.2 20.2 20.2 20.2 20.2 20.2 20.2 20.2 20.2 20.1 20.1 20.1 20.1 20.1 20.1 20.1 20.1 20.1 20.1 20.1 20.1 20.0 20.0 20.1 20.1 20.2 20.2 20.2 20.2 20.1 20.1 20.2 20.2 20.2 20.1 20.1 20.1 20.1 20.1 20.1 20.1 20.1 20.1 20.1 20.1 20.1 20.0 20.0 20.0 20.1 20.1 20.1 20.1 20.1 20.1 20.1 20.1 20.1 20.1 20.1 20.1 20.1 20.1 20.1 20.1 20.1 20.1 20.1 20.1 20.1 20.1 20.0 20.0 20.0 20.0 20.1 20.1 20.1 20.1 20.1 20.1 20.1 20.1 20.1 20.1 20.1 20.1 20.1 20.1 20.1 20.1 20.1 20.1 20.1 20.1 20.1 20.0 20.0 20.0 20.0 20.0 20.1 20.1 20.1 20.1 20.1 20.1 20.1 20.1 20.1 20.1 20.1 20.1 20.1 20.1 20.1 20.1 20.1 20.1 20.1 20.1 20.0 20.0 20.0 20.0 20.0 20.0 20.1 20.1 20.1 20.1 20.1 20.1 20.1 20.1 20.1 20.1 20.1 20.1 20.1 20.1 20.1 20.1 20.1 20.1 20.0 20.0 20.0 20.0 20.0 20.0 20.0 20.0 20.0 20.1 20.1 20.1 20.1 20.1 20.1 20.1 20.1 20.1 20.1 20.1 20.1 20.1 20.0 20.0 20.0 20.0 20.0 20.0 20.0 20.0 20.0 20.0 20.0 20.0 20.0 20.1 20.1 20.1 20.1 20.1 20.0 20.1 20.1 20.1 20.1 20.1 20.1 20.0 20.0 20.0 20.0 20.0 20.0 20.0 20.0 20.0 20.0 20.0 20.0 20.0 20.0 20.1 20.1 20.1 20.1 20.0 20.0 20.0 20.1 20.1 20.1 20.1 20.1 20.0 20.0 20.0 20.0 20.0 20.0 20.0 20.0 20.0 20.0 20.0 20.0 20.0 26.2 38.9 55.5 51.6 31.7 25.9 26.3 25.9 24.2 22.3 21.7 21.4 21.2 21.1 20.9 20.8 20.7 20.6 20.5 20.5 20.4 20.4 20.3 20.3 20.3 20.2 21.4 23.2 25.0 24.5 22.9 22.4 22.6 22.4 22.0 21.6 21.3 21.2 21.0 20.9 20.8 20.7 20.6 20.5 20.4 20.4 20.3 20.3 20.3 20.2 20.2 20.2 20.8 21.0 21.3 21.5 21.6 21.8 21.9 21.8 21.6 21.3 21.2 21.0 20.9 20.8 20.7 20.6 20.5 20.4 20.4 20.3 20.3 20.3 20.2 20.2 20.2 20.2 20.7 20.9 21.0 21.1 21.3 21.4 21.5 21.5 21.3 21.1 21.0 20.9 20.8 20.7 20.6 20.5 20.5 20.4 20.4 20.3 20.3 20.2 20.2 20.2 20.2 20.2 20.6 20.7 20.8 21.0 21.1 21.2 21.3 21.3 21.1 21.0 20.8 20.7 20.7 20.6 20.5 20.5 20.4 20.4 20.3 20.3 20.3 20.2 20.2 20.2 20.2 20.1 20.5 20.7 20.7 20.8 20.9 21.0 21.0 21.0 20.9 20.8 20.7 20.6 20.6 20.5 20.5 20.4 20.4 20.3 20.3 20.3 20.2 20.2 20.2 20.2 20.2 20.1 20.5 20.6 20.6 20.7 20.8 20.8 20.9 20.9 20.8 20.7 20.6 20.6 20.5 20.5 20.4 20.4 20.4 20.3 20.3 20.3 20.2 20.2 20.2 20.2 20.1 20.1 20.4 20.5 20.6 20.6 20.7 20.7 20.7 20.7 20.7 20.6 20.5 20.5 20.4 20.4 20.4 20.3 20.3 20.3 20.3 20.2 20.2 20.2 20.2 20.2 20.1 20.1 20.4 20.4 20.5 20.5 20.6 20.6 20.6 20.6 20.6 20.5 20.5 20.4 20.4 20.4 20.3 20.3 20.3 20.3 20.2 20.2 20.2 20.2 20.2 20.1 20.1 20.1 20.3 20.4 20.4 20.5 20.5 20.5 20.5 20.5 20.5 20.5 20.4 20.4 20.3 20.3 20.3 20.3 20.3 20.2 20.2 20.2 20.2 20.2 20.1 20.1 20.1 20.1 20.3 20.3 20.4 20.4 20.4 20.4 20.4 20.4 20.4 20.4 20.4 20.3 20.3 20.3 20.3 20.2 20.2 20.2 20.2 20.2 20.2 20.1 20.1 20.1 20.1 20.1 20.2 20.3 20.3 20.4 20.4 20.4 20.4 20.4 20.4 20.4 20.3 20.3 20.3 20.3 20.2 20.2 20.2 20.2 20.2 20.2 20.1 20.1 20.1 20.1 20.1 20.1 20.2 20.3 20.3 20.3 20.3 20.3 20.3 20.3 20.3 20.3 20.3 20.3 20.2 20.2 20.2 20.2 20.2 20.2 20.2 20.1 20.1 20.1 20.1 20.1 20.1 20.1 20.2 20.2 20.3 20.3 20.3 20.3 20.3 20.3 20.3 20.3 20.3 20.2 20.2 20.2 20.2 20.2 20.2 20.2 20.1 20.1 20.1 20.1 20.1 20.1 20.1 20.1 20.2 20.2 20.2 20.3 20.3 20.3 20.2 20.2 20.3 20.3 20.2 20.2 20.2 20.2 20.2 20.2 20.2 20.1 20.1 20.1 20.1 20.1 20.1 20.1 20.1 20.1 20.1 20.2 20.2 20.2 20.2 20.2 20.2 20.2 20.2 20.2 20.2 20.2 20.2 20.2 20.1 20.1 20.1 20.1 20.1 20.1 20.1 20.1 20.1 20.1 20.1 20.1 20.1 20.2 20.2 20.2 20.2 20.2 20.2 20.2 20.2 20.2 20.2 20.2 20.1 20.1 20.1 20.1 20.1 20.1 20.1 20.1 20.1 20.1 20.1 20.1 20.1 20.1 20.1 20.1 20.2 20.2 20.2 20.2 20.2 20.2 20.2 20.2 20.2 20.2 20.1 20.1 20.1 20.1 20.1 20.1 20.1 20.1 20.1 20.1 20.1 20.1 20.1 20.1 20.1 20.1 20.2 20.2 20.2 20.1 20.1 20.1 20.2 20.2 20.2 20.1 20.1 20.1 20.1 20.1 20.1 20.1 20.1 20.1 20.1 20.1 20.1 20.1 20.1 20.0 20.1 20.1 20.1 20.1 20.1 20.1 20.1 20.1 20.1 20.1 20.1 20.1 20.1 20.1 20.1 20.1 20.1 20.1 20.1 20.1 20.1 20.1 20.1 20.1 20.0 20.0 20.1 20.1 20.1 20.1 20.1 20.1 20.1 20.1 20.1 20.1 20.1 20.1 20.1 20.1 20.1 20.1 20.1 20.1 20.1 20.1 20.1 20.1 20.1 20.0 20.0 20.0 20.1 20.1 20.1 20.1 20.1 20.1 20.1 20.1 20.1 20.1 20.1 20.1 20.1 20.1 20.1 20.1 20.1 20.1 20.1 20.1 20.1 20.1 20.0 20.0 20.0 20.0 20.1 20.1 20.1 20.1 20.1 20.1 20.1 20.1 20.1 20.1 20.1 20.1 20.1 20.1 20.1 20.1 20.1 20.1 20.1 20.1 20.0 20.0 20.0 20.0 20.0 20.0 20.1 20.1 20.1 20.1 20.1 20.1 20.1 20.1 20.1 20.1 20.1 20.1 20.1 20.1 20.1 20.0 20.0 20.0 20.0 20.0 20.0 20.0 20.0 20.0 20.0 20.0 20.1 20.1 20.1 20.1 20.1 20.1 20.0 20.1 20.1 20.1 20.1 20.1 20.1 20.1 20.0 20.0 20.0 20.0 20.0 20.0 20.0 20.0 20.0 20.0 20.0 20.0 20.0 20.1 20.1 20.1 20.1 20.1 20.0 20.1 20.1 20.1 20.1 20.1 20.1 20.0 20.0 20.0 20.0 20.0 20.0 20.0 20.0 20.0 20.0 20.0 20.0 20.0 22.2 25.4 34.0 35.3 26.9 25.2 25.8 25.5 24.0 22.1 21.4 21.2 21.0 20.9 20.8 20.7 20.6 20.5 20.5 20.4 20.4 20.3 20.3 20.3 20.2 20.2 20.9 21.3 22.0 22.3 22.0 21.9 22.1 21.9 21.6 21.3 21.1 21.0 20.9 20.7 20.6 20.6 20.5 20.4 20.4 20.3 20.3 20.3 20.2 20.2 20.2 20.2 20.7 20.8 21.0 21.1 21.2 21.4 21.5 21.5 21.3 21.1 21.0 20.8 20.8 20.7 20.6 20.5 20.4 20.4 20.3 20.3 20.3 20.2 20.2 20.2 20.2 20.2 20.6 20.7 20.8 20.9 21.0 21.1 21.2 21.2 21.1 20.9 20.8 20.7 20.7 20.6 20.5 20.5 20.4 20.4 20.3 20.3 20.2 20.2 20.2 20.2 20.1 20.1 20.5 20.6 20.7 20.8 20.9 21.0 21.0 21.0 20.9 20.8 20.7 20.6 20.6 20.5 20.5 20.4 20.4 20.3 20.3 20.3 20.2 20.2 20.2 20.2 20.1 20.1 20.5 20.6 20.6 20.7 20.8 20.8 20.9 20.9 20.8 20.7 20.6 20.6 20.5 20.5 20.4 20.4 20.3 20.3 20.3 20.2 20.2 20.2 20.2 20.2 20.1 20.1 20.4 20.5 20.5 20.6 20.7 20.7 20.7 20.7 20.7 20.6 20.5 20.5 20.4 20.4 20.4 20.3 20.3 20.3 20.3 20.2 20.2 20.2 20.2 20.1 20.1 20.1 20.4 20.4 20.5 20.5 20.6 20.6 20.6 20.6 20.6 20.5 20.5 20.4 20.4 20.4 20.3 20.3 20.3 20.3 20.2 20.2 20.2 20.2 20.2 20.1 20.1 20.1 20.3 20.4 20.4 20.5 20.5 20.5 20.5 20.5 20.5 20.5 20.4 20.4 20.3 20.3 20.3 20.3 20.3 20.2 20.2 20.2 20.2 20.2 20.1 20.1 20.1 20.1 20.3 20.3 20.4 20.4 20.4 20.4 20.4 20.4 20.4 20.4 20.4 20.3 20.3 20.3 20.3 20.2 20.2 20.2 20.2 20.2 20.2 20.1 20.1 20.1 20.1 20.1 20.3 20.3 20.3 20.4 20.4 20.4 20.4 20.4 20.4 20.4 20.3 20.3 20.3 20.3 20.2 20.2 20.2 20.2 20.2 20.2 20.1 20.1 20.1 20.1 20.1 20.1 20.2 20.3 20.3 20.3 20.3 20.3 20.3 20.3 20.3 20.3 20.3 20.3 20.2 20.2 20.2 20.2 20.2 20.2 20.2 20.1 20.1 20.1 20.1 20.1 20.1 20.1 20.2 20.2 20.3 20.3 20.3 20.3 20.3 20.3 20.3 20.3 20.3 20.2 20.2 20.2 20.2 20.2 20.2 20.2 20.1 20.1 20.1 20.1 20.1 20.1 20.1 20.1 20.2 20.2 20.2 20.3 20.3 20.3 20.2 20.2 20.3 20.3 20.2 20.2 20.2 20.2 20.2 20.2 20.2 20.1 20.1 20.1 20.1 20.1 20.1 20.1 20.1 20.1 20.2 20.2 20.2 20.2 20.2 20.2 20.2 20.2 20.2 20.2 20.2 20.2 20.2 20.2 20.1 20.1 20.1 20.1 20.1 20.1 20.1 20.1 20.1 20.1 20.1 20.1 20.1 20.2 20.2 20.2 20.2 20.2 20.2 20.2 20.2 20.2 20.2 20.2 20.2 20.1 20.1 20.1 20.1 20.1 20.1 20.1 20.1 20.1 20.1 20.1 20.1 20.1 20.1 20.2 20.2 20.2 20.2 20.2 20.2 20.2 20.2 20.2 20.2 20.2 20.1 20.1 20.1 20.1 20.1 20.1 20.1 20.1 20.1 20.1 20.1 20.1 20.1 20.1 20.1 20.1 20.2 20.2 20.2 20.2 20.1 20.1 20.2 20.2 20.2 20.1 20.1 20.1 20.1 20.1 20.1 20.1 20.1 20.1 20.1 20.1 20.1 20.1 20.1 20.1 20.1 20.1 20.1 20.1 20.1 20.1 20.1 20.1 20.1 20.2 20.1 20.1 20.1 20.1 20.1 20.1 20.1 20.1 20.1 20.1 20.1 20.1 20.1 20.1 20.1 20.1 20.1 20.1 20.1 20.1 20.1 20.1 20.1 20.1 20.1 20.1 20.1 20.1 20.1 20.1 20.1 20.1 20.1 20.1 20.1 20.1 20.1 20.1 20.1 20.1 20.0 20.0 20.1 2