<?xml version="1.0"?>
<VTKFile type="RectilinearGrid" version="1.0" byte_order="LittleEndian" header_type="UInt64">
<RectilinearGrid WholeExtent="25 50 0 25 0 15">
<Piece Extent="25 50 0 25 0 15">
<Coordinates>
<DataArray type="Float64" Name="Array X-Axis" format="ascii" RangeMin="15.0" RangeMax="30.0">
15.0 15.6 16.2 16.8 17.4 18.0 18.6 19.2 19.8 20.4 21.0 21.6 22.2 22.8 23.4 24.0 24.6 25.2 25.8 26.4 27.0 27.6 28.2 28.8 29.4 30.0 
</DataArray>
<DataArray type="Float64" Name="Array Y-Axis" format="ascii" RangeMin="0.0" RangeMax="15.0">
0.0 0.6 1.2 1.8 2.4 3.0 3.6 4.2 4.8 5.4 6.0 6.6 7.2 7.8 8.4 9.0 9.6 10.2 10.8 11.4 12.0 12.6 13.2 13.8 14.4 15.0 
</DataArray>
<DataArray type="Float64" Name="Array Z-Axis" format="ascii" RangeMin="0.0" RangeMax="9.0">
0.0 0.6 1.2 1.8 2.4 3.0 3.6 4.2 4.8 5.4 6.0 6.6 7.2 7.8 8.4 9.0 
</DataArray>
</Coordinates>
<PointData>
<DataArray Name="SOOT DENSITY" NumberOfComponents="1" type="UInt8" format="ascii">
0 0 0 0 0 0 0 0 0 0 0 0 0 0 0 0 0 0 0 0 0 0 0 0 0 0 0 0 0 0 0 0 0 0 0 0 0 0 0 0 0 0 0 0 0 0 0 0 0 0 0 0 0 0 0 0 0 0 0 0 0 0 0 0 0 0 0 0 0 0 0 0 0 0 0 0 0 0 0 0 0 0 0 0 0 0 0 0 0 0 0 0 0 0 0 0 0 0 0 0 0 0 0 0 0 0 0 0 0 0 0 0 0 0 0 0 0 0 0 0 0 0 0 0 0 0 0 0 0 0 0 0 0 0 0 0 0 0 0 0 0 0 0 0 0 0 0 0 0 0 0 0 0 0 0 0 0 0 0 0 0 0 0 0 0 0 0 0 0 0 0 0 0 0 0 0 0 0 0 0 0 0 0 0 0 0 0 0 0 0 0 0 0 0 0 0 0 0 0 0 0 0 0 0 0 0 0 0 0 0 0 0 0 0 0 0 0 0 0 0 0 0 0 0 0 0 0 0 0 0 0 0 0 0 0 0 0 0 0 0 0 0 0 0 0 0 0 0 0 0 0 0 0 0 0 0 0 0 0 0 0 0 0 0 0 0 0 0 0 0 0 0 0 0 0 0 0 0 0 0 0 0 0 0 0 0 0 0 0 0 0 0 0 0 0 0 0 0 0 0 0 0 0 0 0 0 0 0 0 0 0 0 0 0 0 0 0 0 0 0 0 0 0 0 0 0 0 0 0 0 0 0 0 0 0 0 0 0 0 0 0 0 0 0 0 0 0 0 0 0 0 0 0 0 0 0 0 0 0 0 0 0 0 0 0 0 0 0 0 0 0 0 0 0 0 0 0 0 0 0 0 0 0 0 0 0 0 0 0 0 0 0 0 0 0 0 0 0 0 0 0 0 0 0 0 0 0 0 0 0 0 0 0 0 0 0 0 0 0 0 0 0 0 0 0 0 0 0 0 0 0 0 0 0 0 0 0 0 0 0 0 0 0 0 0 0 0 0 0 0 0 0 0 0 0 0 0 0 0 0 0 0 0 0 0 0 0 0 0 0 0 0 1 1 0 0 0 0 0 0 0 0 0 0 0 0 0 0 0 0 0 0 0 0 0 0 0 1 4 5 5 2 0 0 0 0 0 0 0 0 0 0 0 0 0 0 0 0 0 0 0 0 1 5 6 5 4 3 1 0 0 0 0 0 0 0 0 0 0 0 0 0 0 0 0 0 0 0 2 11 10 0 0 4 4 0 0 0 0 0 0 0 0 0 0 0 0 0 0 0 0 0 0 0 1 11 10 0 0 8 8 1 0 0 0 0 0 0 0 0 0 0 0 0 0 0 0 0 0 0 0 5 8 9 13 13 6 0 0 0 0 0 0 0 0 0 0 0 0 0 0 0 0 0 0 0 0 2 5 10 14 10 2 0 0 0 0 0 0 0 0 0 0 0 0 0 0 0 0 0 0 0 0 0 1 1 1 1 0 0 0 0 0 0 0 0 0 0 0 0 0 0 0 0 0 0 0 0 0 0 0 0 0 0 0 0 0 0 0 0 0 0 0 0 0 0 0 0 0 0 0 0 0 0 0 0 0 0 0 0 0 0 0 0 0 0 0 0 0 0 0 0 0 0 0 0 0 0 0 0 0 0 0 0 0 0 0 0 0 0 0 0 0 0 0 0 0 0 0 0 0 0 0 0 0 0 0 0 0 0 0 0 0 0 0 0 0 0 0 0 0 0 0 0 0 0 0 0 0 0 0 0 0 0 0 0 0 0 0 0 0 0 0 0 0 0 0 0 0 0 0 0 0 0 0 0 0 0 0 0 0 0 0 0 0 0 0 0 0 0 0 0 0 0 0 0 0 0 0 0 0 0 0 0 0 0 0 0 0 0 0 0 0 0 0 0 0 0 0 0 0 0 0 0 0 0 0 0 0 0 0 0 0 0 0 0 0 0 0 0 0 0 0 0 0 0 0 0 0 0 0 0 0 0 0 0 0 0 0 0 0 0 0 0 0 0 0 0 0 0 0 0 0 0 0 0 0 0 0 0 0 0 0 0 0 0 0 0 0 0 0 0 0 0 0 0 0 0 0 0 0 0 0 0 0 0 0 0 0 0 0 0 0 0 0 0 0 0 0 0 0 0 0 0 0 0 0 0 0 0 0 0 0 0 0 0 0 0 0 0 0 0 0 0 0 0 0 0 0 0 0 0 0 0 0 0 0 0 0 0 0 0 0 0 0 0 0 0 0 0 0 0 0 0 0 0 0 0 0 0 0 0 0 0 0 0 0 0 0 0 0 0 0 0 0 0 0 0 0 0 0 0 0 0 0 0 0 0 0 0 0 0 0 0 0 0 0 0 0 0 0 0 0 0 0 0 0 0 0 0 0 0 0 0 0 0 0 0 0 0 0 0 0 0 0 0 0 0 0 0 0 0 0 0 0 0 0 0 0 0 0 0 0 0 0 0 0 0 0 0 0 0 0 0 0 0 0 0 0 0 0 0 0 0 0 0 0 0 0 0 0 1 1 0 1 1 0 0 0 0 0 0 0 0 0 0 0 0 0 0 0 0 0 0 0 0 1 9 13 7 5 4 1 0 0 0 0 0 0 0 0 0 0 0 0 0 0 0 0 0 0 0 2 20 35 35 29 14 3 0 0 0 0 0 0 0 0 0 0 0 0 0 0 0 0 0 0 1 10 35 90 146 140 71 13 1 0 0 0 0 0 0 0 0 0 0 0 0 0 0 0 0 0 2 14 68 171 225 216 135 44 6 0 0 0 0 0 0 0 0 0 0 0 0 0 0 0 0 0 1 11 75 180 229 227 178 78 8 0 0 0 0 0 0 0 0 0 0 0 0 0 0 0 0 0 1 7 45 110 163 180 148 60 3 0 0 0 0 0 0 0 0 0 0 0 0 0 0 0 0 0 0 2 15 29 42 50 37 13 0 0 0 0 0 0 0 0 0 0 0 0 0 0 0 0 0 0 0 0 1 3 6 6 3 1 0 0 0 0 0 0 0 0 0 0 0 0 0 0 0 0 0 0 0 0 0 0 0 0 0 0 0 0 0 0 0 0 0 0 0 0 0 0 0 0 0 0 0 0 0 0 0 0 0 0 0 0 0 0 0 0 0 0 0 0 0 0 0 0 0 0 0 0 0 0 0 0 0 0 0 0 0 0 0 0 0 0 0 0 0 0 0 0 0 0 0 0 0 0 0 0 0 0 0 0 0 0 0 0 0 0 0 0 0 0 0 0 0 0 0 0 0 0 0 0 0 0 0 0 0 0 0 0 0 0 0 0 0 0 0 0 0 0 0 0 0 0 0 0 0 0 0 0 0 0 0 0 0 0 0 0 0 0 0 0 0 0 0 0 0 0 0 0 0 0 0 0 0 0 0 0 0 0 0 0 0 0 0 0 0 0 0 0 0 0 0 0 0 0 0 0 0 0 0 0 0 0 0 0 0 0 0 0 0 0 0 0 0 0 0 0 0 0 0 0 0 0 0 0 0 0 0 0 0 0 0 0 0 0 0 0 0 0 0 0 0 0 0 0 0 0 0 0 0 0 0 0 0 0 0 0 0 0 0 0 0 0 0 0 0 0 0 0 0 0 0 0 0 0 0 0 0 0 0 0 0 0 0 0 0 0 0 0 0 0 0 0 0 0 0 0 0 0 0 0 0 0 0 0 0 0 0 0 0 0 0 0 0 0 0 0 0 0 0 0 0 0 0 0 0 0 0 0 0 0 0 0 0 0 0 0 0 0 0 0 0 0 0 0 0 0 0 0 0 0 0 0 0 0 0 0 0 0 0 0 0 0 0 0 0 0 0 0 0 0 0 0 0 0 0 0 0 0 0 0 0 0 0 0 0 0 0 0 0 0 0 0 0 0 0 0 0 0 0 0 0 0 0 0 0 0 0 0 0 0 0 0 0 0 0 0 0 0 0 0 0 0 0 0 0 0 0 0 0 0 0 0 0 0 0 0 0 1 0 1 1 0 0 0 0 0 0 0 0 0 0 0 0 0 0 0 0 0 0 0 0 1 13 13 2 14 16 4 0 0 0 0 0 0 0 0 0 0 0 0 0 0 0 0 0 0 0 6 48 52 19 42 47 15 0 0 0 0 0 0 0 0 0 0 0 0 0 0 0 0 0 0 2 26 97 111 88 107 100 43 1 0 0 0 0 0 0 0 0 0 0 0 0 0 0 0 0 1 6 46 141 201 222 221 195 109 6 0 0 0 0 0 0 0 0 0 0 0 0 0 0 0 0 1 10 46 172 244 252 251 238 167 26 1 0 0 0 0 0 0 0 0 0 0 0 0 0 0 0 1 8 39 172 245 253 253 246 182 29 2 0 0 0 0 0 0 0 0 0 0 0 0 0 0 0 0 3 28 136 214 233 240 227 131 9 1 0 0 0 0 0 0 0 0 0 0 0 0 0 0 0 0 1 10 66 119 120 124 101 25 1 0 0 0 0 0 0 0 0 0 0 0 0 0 0 0 0 0 0 0 4 13 20 21 11 1 0 0 0 0 0 0 0 0 0 0 0 0 0 0 0 0 0 0 0 0 0 0 0 0 0 0 0 0 0 0 0 0 0 0 0 0 0 0 0 0 0 0 0 0 0 0 0 0 0 0 0 0 0 0 0 0 0 0 0 0 0 0 0 0 0 0 0 0 0 0 0 0 0 0 0 0 0 0 0 0 0 0 0 0 0 0 0 0 0 0 0 0 0 0 0 0 0 0 0 0 0 0 0 0 0 0 0 0 0 0 0 0 0 0 0 0 0 0 0 0 0 0 0 0 0 0 0 0 0 0 0 0 0 0 0 0 0 0 0 0 0 0 0 0 0 0 0 0 0 0 0 0 0 0 0 0 0 0 0 0 0 0 0 0 0 0 0 0 0 0 0 0 0 0 0 0 0 0 0 0 0 0 0 0 0 0 0 0 0 0 0 0 0 0 0 0 0 0 0 0 0 0 0 0 0 0 0 0 0 0 0 0 0 0 0 0 0 0 0 0 0 0 0 0 0 0 0 0 0 0 0 0 0 0 0 0 0 0 0 0 0 0 0 0 0 0 0 0 0 0 0 0 0 0 0 0 0 0 0 0 0 0 0 0 0 0 0 0 0 0 0 0 0 0 0 0 0 0 0 0 0 0 0 0 0 0 0 0 0 0 0 0 0 0 0 0 0 0 0 0 0 0 0 0 0 0 0 0 0 0 0 0 0 0 0 0 0 0 0 0 0 0 0 0 0 0 0 0 0 0 0 0 0 0 0 0 0 0 0 0 0 0 0 0 0 0 0 0 0 0 0 0 0 0 0 0 0 0 0 0 0 0 0 0 0 0 0 0 0 0 0 0 0 0 0 0 0 0 0 0 0 0 0 0 0 0 0 0 0 0 0 0 0 0 0 0 0 0 0 0 0 0 0 0 0 0 0 0 0 0 0 0 0 0 0 0 0 0 0 0 0 0 0 0 0 0 0 0 0 0 0 0 0 0 0 0 1 1 1 2 1 0 0 0 0 0 0 0 0 0 0 0 0 0 0 0 0 0 0 0 0 4 16 14 0 22 21 6 0 0 0 0 0 0 0 0 0 0 0 0 0 0 0 0 0 1 6 26 62 53 0 78 71 24 1 0 0 0 0 0 0 0 0 0 0 0 0 0 0 0 0 10 37 91 138 132 0 186 172 93 12 0 0 0 0 0 0 0 0 0 0 0 0 0 0 0 0 20 78 155 212 231 0 244 235 170 26 2 0 0 0 0 0 0 0 0 0 0 0 0 0 0 0 14 75 164 237 252 0 253 251 228 98 9 0 0 0 0 0 0 0 0 0 0 0 0 0 0 0 7 39 149 237 252 0 253 253 236 109 12 0 0 0 0 0 0 0 0 0 0 0 0 0 0 0 6 20 121 217 241 0 247 243 190 38 4 0 0 0 0 0 0 0 0 0 0 0 0 0 0 0 3 9 50 132 178 169 167 156 71 7 0 0 0 0 0 0 0 0 0 0 0 0 0 0 0 0 0 2 3 9 24 36 44 31 7 0 0 0 0 0 0 0 0 0 0 0 0 0 0 0 0 0 0 0 0 0 0 0 0 0 0 0 0 0 0 0 0 0 0 0 0 0 0 0 0 0 0 0 0 0 0 0 0 0 0 0 0 0 0 0 0 0 0 0 0 0 0 0 0 0 0 0 0 0 0 0 0 0 0 0 0 0 0 0 0 0 0 0 0 0 0 0 0 0 0 0 0 0 0 0 0 0 0 0 0 0 0 0 0 0 0 0 0 0 0 0 0 0 0 0 0 0 0 0 0 0 0 0 0 0 0 0 0 0 0 0 0 0 0 0 0 0 0 0 0 0 0 0 0 0 0 0 0 0 0 0 0 0 0 0 0 0 0 0 0 0 0 0 0 0 0 0 0 0 0 0 0 0 0 0 0 0 0 0 0 0 0 0 0 0 0 0 0 0 0 0 0 0 0 0 0 0 0 0 0 0 0 0 0 0 0 0 0 0 0 0 0 0 0 0 0 0 0 0 0 0 0 0 0 0 0 0 0 0 0 0 0 0 0 0 0 0 0 0 0 0 0 0 0 0 0 0 0 0 0 0 0 0 0 0 0 0 0 0 0 0 0 0 0 0 0 0 0 0 0 0 0 0 0 0 0 0 0 0 0 0 0 0 0 0 0 0 0 0 0 0 0 0 0 0 0 0 0 0 0 0 0 0 0 0 0 0 0 0 0 0 0 0 0 0 0 0 0 0 0 0 0 0 0 0 0 0 0 0 0 0 0 0 0 0 0 0 0 0 0 0 0 0 0 0 0 0 0 0 0 0 0 0 0 0 0 0 0 0 0 0 0 0 0 0 0 0 0 0 0 0 0 0 0 0 0 0 0 0 0 0 0 0 0 0 0 0 0 0 0 0 0 0 0 0 0 0 0 0 0 0 0 0 0 0 0 0 0 0 0 0 0 0 0 0 0 0 0 0 0 0 0 0 0 0 0 0 0 0 0 0 0 0 0 1 1 1 0 0 1 1 0 0 0 0 0 0 0 0 0 0 0 0 0 0 0 0 0 0 0 4 7 6 0 0 0 8 2 0 0 0 0 0 0 0 0 0 0 0 0 0 0 0 0 0 6 39 55 40 0 0 0 47 16 1 0 0 0 0 0 0 0 0 0 0 0 0 0 0 0 0 33 112 144 126 0 0 0 182 109 20 1 0 0 0 0 0 0 0 0 0 0 0 0 0 0 0 48 161 216 230 0 0 0 238 170 46 2 0 0 0 0 0 0 0 0 0 0 0 0 0 0 0 33 148 231 250 0 0 0 252 237 145 16 0 0 0 0 0 0 0 0 0 0 0 0 0 0 0 28 132 231 251 0 0 0 253 245 155 19 0 0 0 0 0 0 0 0 0 0 0 0 0 0 0 28 127 217 241 0 0 0 245 207 57 6 0 0 0 0 0 0 0 0 0 0 0 0 0 0 0 16 85 143 168 179 166 171 171 100 10 1 0 0 0 0 0 0 0 0 0 0 0 0 0 0 0 4 41 49 23 27 41 57 43 11 1 0 0 0 0 0 0 0 0 0 0 0 0 0 0 0 0 0 0 0 0 0 0 0 0 0 0 0 0 0 0 0 0 0 0 0 0 0 0 0 0 0 0 0 0 0 0 0 0 0 0 0 0 0 0 0 0 0 0 0 0 0 0 0 0 0 0 0 0 0 0 0 0 0 0 0 0 0 0 0 0 0 0 0 0 0 0 0 0 0 0 0 0 0 0 0 0 0 0 0 0 0 0 0 0 0 0 0 0 0 0 0 0 0 0 0 0 0 0 0 0 0 0 0 0 0 0 0 0 0 0 0 0 0 0 0 0 0 0 0 0 0 0 0 0 0 0 0 0 0 0 0 0 0 0 0 0 0 0 0 0 0 0 0 0 0 0 0 0 0 0 0 0 0 0 0 0 0 0 0 0 0 0 0 0 0 0 0 0 0 0 0 0 0 0 0 0 0 0 0 0 0 0 0 0 0 0 0 0 0 0 0 0 0 0 0 0 0 0 0 0 0 0 0 0 0 0 0 0 0 0 0 0 0 0 0 0 0 0 0 0 0 0 0 0 0 0 0 0 0 0 0 0 0 0 0 0 0 0 0 0 0 0 0 0 0 0 0 0 0 0 0 0 0 0 0 0 0 0 0 0 0 0 0 0 0 0 0 0 0 0 0 0 0 0 0 0 0 0 0 0 0 0 0 0 0 0 0 0 0 0 0 0 0 0 0 0 0 0 0 0 0 0 0 0 0 0 0 0 0 0 0 0 0 0 0 0 0 0 0 0 0 0 0 0 0 0 0 0 0 0 0 0 0 0 0 0 0 0 0 0 0 0 0 0 0 0 0 0 0 0 0 0 0 0 0 0 0 0 0 0 0 0 0 0 0 0 0 0 0 0 0 0 0 0 0 0 0 0 0 0 0 0 0 0 0 0 0 0 0 0 0 0 0 0 0 0 0 0 0 0 0 0 0 0 0 0 0 0 0 0 0 0 0 1 1 0 0 0 0 0 0 0 0 0 0 0 0 0 0 0 0 0 0 0 0 0 0 0 2 6 6 0 0 0 2 1 1 0 0 0 0 0 0 0 0 0 0 0 0 0 0 0 0 0 17 47 49 0 0 0 25 25 13 1 0 0 0 0 0 0 0 0 0 0 0 0 0 0 0 0 81 139 143 0 0 0 162 157 103 14 0 0 0 0 0 0 0 0 0 0 0 0 0 0 0 0 125 203 228 0 0 0 237 223 153 42 2 0 0 0 0 0 0 0 0 0 0 0 0 0 0 0 127 215 246 0 0 0 253 251 231 138 13 0 0 0 0 0 0 0 0 0 0 0 0 0 0 0 141 223 248 0 0 0 254 253 241 146 17 1 0 0 0 0 0 0 0 0 0 0 0 0 0 0 140 217 241 0 0 0 247 244 194 56 10 1 0 0 0 0 0 0 0 0 0 0 0 0 0 0 96 162 185 169 150 139 175 172 87 15 4 0 0 0 0 0 0 0 0 0 0 0 0 0 0 0 38 78 77 34 26 37 64 50 11 3 0 0 0 0 0 0 0 0 0 0 0 0 0 0 0 0 0 0 0 0 0 0 0 0 0 0 0 0 0 0 0 0 0 0 0 0 0 0 0 0 0 0 0 0 0 0 0 0 0 0 0 0 0 0 0 0 0 0 0 0 0 0 0 0 0 0 0 0 0 0 0 0 0 0 0 0 0 0 0 0 0 0 0 0 0 0 0 0 0 0 0 0 0 0 0 0 0 0 0 0 0 0 0 0 0 0 0 0 0 0 0 0 0 0 0 0 0 0 0 0 0 0 0 0 0 0 0 0 0 0 0 0 0 0 0 0 0 0 0 0 0 0 0 0 0 0 0 0 0 0 0 0 0 0 0 0 0 0 0 0 0 0 0 0 0 0 0 0 0 0 0 0 0 0 0 0 0 0 0 0 0 0 0 0 0 0 0 0 0 0 0 0 0 0 0 0 0 0 0 0 0 0 0 0 0 0 0 0 0 0 0 0 0 0 0 0 0 0 0 0 0 0 0 0 0 0 0 0 0 0 0 0 0 0 0 0 0 0 0 0 0 0 0 0 0 0 0 0 0 0 0 0 0 0 0 0 0 0 0 0 0 0 0 0 0 0 0 0 0 0 0 0 0 0 0 0 0 0 0 0 0 0 0 0 0 0 0 0 0 0 0 0 0 0 0 0 0 0 0 0 0 0 0 0 0 0 0 0 0 0 0 0 0 0 0 0 0 0 0 0 0 0 0 0 0 0 0 0 0 0 0 0 0 0 0 0 0 0 0 0 0 0 0 0 0 0 0 0 0 0 0 0 0 0 0 0 0 0 0 0 0 0 0 0 0 0 0 0 0 0 0 0 0 0 0 0 0 0 0 0 0 0 0 0 0 0 0 0 0 0 0 0 0 0 0 0 0 0 0 0 0 0 0 0 0 0 0 0 0 0 0 0 0 0 0 0 0 0 0 0 0 0 0 0 0 0 0 0 0 0 0 0 1 1 1 0 0 0 0 0 0 0 0 0 0 0 0 0 0 0 0 0 0 0 0 0 0 0 5 5 0 0 0 1 1 1 0 0 0 0 0 0 0 0 0 0 0 0 0 0 0 0 0 0 25 29 0 0 0 12 8 13 10 1 0 0 0 0 0 0 0 0 0 0 0 0 0 0 0 0 112 127 0 0 0 103 87 103 76 7 0 0 0 0 0 0 0 0 0 0 0 0 0 0 0 0 194 221 0 0 0 199 188 177 122 27 2 0 0 0 0 0 0 0 0 0 0 0 0 0 0 0 211 241 0 0 0 251 251 247 213 103 11 1 0 0 0 0 0 0 0 0 0 0 0 0 0 0 218 245 0 0 0 253 253 252 229 118 17 1 0 0 0 0 0 0 0 0 0 0 0 0 0 0 210 237 0 0 0 239 245 238 165 58 13 1 0 0 0 0 0 0 0 0 0 0 0 0 0 0 156 184 176 147 126 116 163 154 62 20 6 0 0 0 0 0 0 0 0 0 0 0 0 0 0 0 75 95 71 37 28 31 56 46 11 5 1 0 0 0 0 0 0 0 0 0 0 0 0 0 0 0 0 0 0 0 0 0 0 0 0 0 0 0 0 0 0 0 0 0 0 0 0 0 0 0 0 0 0 0 0 0 0 0 0 0 0 0 0 0 0 0 0 0 0 0 0 0 0 0 0 0 0 0 0 0 0 0 0 0 0 0 0 0 0 0 0 0 0 0 0 0 0 0 0 0 0 0 0 0 0 0 0 0 0 0 0 0 0 0 0 0 0 0 0 0 0 0 0 0 0 0 0 0 0 0 0 0 0 0 0 0 0 0 0 0 0 0 0 0 0 0 0 0 0 0 0 0 0 0 0 0 0 0 0 0 0 0 0 0 0 0 0 0 0 0 0 0 0 0 0 0 0 0 0 0 0 0 0 0 0 0 0 0 0 0 0 0 0 0 0 0 0 0 0 0 0 0 0 0 0 0 0 0 0 0 0 0 0 0 0 0 0 0 0 0 0 0 0 0 0 0 0 0 0 0 0 0 0 0 0 0 0 0 0 0 0 0 0 0 0 0 0 0 0 0 0 0 0 0 0 0 0 0 0 0 0 0 0 0 0 0 0 0 0 0 0 0 0 0 0 0 0 0 0 0 0 0 0 0 0 0 0 0 0 0 0 0 0 0 0 0 0 0 0 0 0 0 0 0 0 0 0 0 0 0 0 0 0 0 0 0 0 0 0 0 0 0 0 0 0 0 0 0 0 0 0 0 0 0 0 0 0 0 0 0 0 0 0 0 0 0 0 0 0 0 0 0 0 0 0 0 0 0 0 0 0 0 0 0 0 0 0 0 0 0 0 0 0 0 0 0 0 0 0 0 0 0 0 0 0 0 0 0 0 0 0 0 0 0 0 0 0 0 0 0 0 0 0 0 0 0 0 0 0 0 0 0 0 0 0 0 1 1 0 0 0 0 0 0 0 0 0 0 0 0 0 0 0 0 0 0 0 0 0 0 0 0 3 2 1 0 0 0 0 0 0 0 0 0 0 0 0 0 0 0 0 0 0 0 0 0 0 0 10 0 0 0 1 1 0 0 0 0 0 0 0 0 0 0 0 0 0 0 0 0 0 0 0 0 35 0 0 0 14 10 4 5 4 1 0 0 0 0 0 0 0 0 0 0 0 0 0 0 0 0 104 0 0 0 89 74 41 44 37 6 1 0 0 0 0 0 0 0 0 0 0 0 0 0 0 0 209 0 0 0 176 165 135 138 114 35 4 0 0 0 0 0 0 0 0 0 0 0 0 0 0 0 232 0 0 0 248 248 247 240 202 86 14 1 0 0 0 0 0 0 0 0 0 0 0 0 0 0 233 0 0 0 253 253 252 248 209 103 25 2 0 0 0 0 0 0 0 0 0 0 0 0 0 0 229 0 0 0 240 238 237 217 137 76 25 3 0 0 0 0 0 0 0 0 0 0 0 0 0 0 202 205 170 140 128 115 125 106 60 43 13 1 0 0 0 0 0 0 0 0 0 0 0 0 0 0 136 151 111 62 34 27 31 28 21 16 3 0 0 0 0 0 0 0 0 0 0 0 0 0 0 0 0 0 0 0 0 0 0 0 0 0 0 0 0 0 0 0 0 0 0 0 0 0 0 0 0 0 0 0 0 0 0 0 0 0 0 0 0 0 0 0 0 0 0 0 0 0 0 0 0 0 0 0 0 0 0 0 0 0 0 0 0 0 0 0 0 0 0 0 0 0 0 0 0 0 0 0 0 0 0 0 0 0 0 0 0 0 0 0 0 0 0 0 0 0 0 0 0 0 0 0 0 0 0 0 0 0 0 0 0 0 0 0 0 0 0 0 0 0 0 0 0 0 0 0 0 0 0 0 0 0 0 0 0 0 0 0 0 0 0 0 0 0 0 0 0 0 0 0 0 0 0 0 0 0 0 0 0 0 0 0 0 0 0 0 0 0 0 0 0 0 0 0 0 0 0 0 0 0 0 0 0 0 0 0 0 0 0 0 0 0 0 0 0 0 0 0 0 0 0 0 0 0 0 0 0 0 0 0 0 0 0 0 0 0 0 0 0 0 0 0 0 0 0 0 0 0 0 0 0 0 0 0 0 0 0 0 0 0 0 0 0 0 0 0 0 0 0 0 0 0 0 0 0 0 0 0 0 0 0 0 0 0 0 0 0 0 0 0 0 0 0 0 0 0 0 0 0 0 0 0 0 0 0 0 0 0 0 0 0 0 0 0 0 0 0 0 0 0 0 0 0 0 0 0 0 0 0 0 0 0 0 0 0 0 0 0 0 0 0 0 0 0 0 0 0 0 0 0 0 0 0 0 0 0 0 0 0 0 0 0 0 0 0 0 0 0 0 0 0 0 0 0 0 0 0 0 0 0 0 0 0 0 0 0 0 0 0 0 0 0 0 0 0 0 0 0 0 0 0 0 0 0 0 0 0 0 0 0 0 0 1 1 1 0 0 0 0 0 0 0 0 0 0 0 0 0 0 0 0 0 0 0 0 0 0 0 5 4 2 1 0 0 0 0 0 0 0 0 0 0 0 0 0 0 0 0 0 0 0 0 0 0 16 19 0 2 1 0 0 0 0 0 0 0 0 0 0 0 0 0 0 0 0 0 0 0 0 0 45 41 0 9 7 5 3 2 1 1 0 0 0 0 0 0 0 0 0 0 0 0 0 0 0 0 93 80 0 66 64 57 34 23 19 7 2 0 0 0 0 0 0 0 0 0 0 0 0 0 0 0 198 189 0 170 164 159 135 146 125 46 6 0 0 0 0 0 0 0 0 0 0 0 0 0 0 0 228 235 0 248 246 244 241 237 210 103 20 1 0 0 0 0 0 0 0 0 0 0 0 0 0 0 231 243 0 253 253 252 249 241 209 120 35 3 0 0 0 0 0 0 0 0 0 0 0 0 0 0 233 236 0 244 242 238 221 183 149 100 33 4 0 0 0 0 0 0 0 0 0 0 0 0 0 0 227 224 191 165 140 123 95 75 87 68 18 2 0 0 0 0 0 0 0 0 0 0 0 0 0 0 179 197 161 97 46 33 24 22 35 28 5 0 0 0 0 0 0 0 0 0 0 0 0 0 0 0 0 0 0 0 0 0 0 0 0 0 0 0 0 0 0 0 0 0 0 0 0 0 0 0 0 0 0 0 0 0 0 0 0 0 0 0 0 0 0 0 0 0 0 0 0 0 0 0 0 0 0 0 0 0 0 0 0 0 0 0 0 0 0 0 0 0 0 0 0 0 0 0 0 0 0 0 0 0 0 0 1 0 0 0 0 0 0 0 0 0 0 0 0 0 0 0 0 0 0 0 0 0 0 0 0 0 1 1 0 1 1 1 1 1 1 1 1 0 0 0 0 0 0 0 0 0 0 0 0 0 0 0 1 1 1 1 1 1 1 1 1 1 1 0 0 0 0 0 0 0 0 0 0 0 0 0 1 1 1 1 1 1 1 1 1 1 1 1 0 0 0 0 0 0 0 0 0 0 0 0 0 0 2 2 2 1 1 1 1 1 1 1 1 0 0 0 0 0 0 0 0 0 0 0 0 0 0 0 2 3 4 5 4 2 1 1 0 0 0 0 0 0 0 0 0 0 0 0 0 0 0 0 0 0 2 2 4 7 6 2 1 0 0 0 0 0 0 0 0 0 0 0 0 0 0 0 0 0 0 0 1 2 3 3 3 1 1 0 0 0 0 0 0 0 0 0 0 0 0 0 0 0 0 0 0 0 1 1 2 2 2 1 0 0 0 0 0 0 0 0 0 0 0 0 0 0 0 0 0 0 0 0 0 1 1 2 2 1 0 0 0 0 0 0 0 0 0 0 0 0 0 0 0 0 0 0 0 0 0 1 2 2 2 1 0 0 0 0 0 0 0 0 0 0 0 0 0 0 0 0 0 0 0 0 1 1 2 2 2 1 0 0 0 0 0 0 0 0 0 0 0 0 0 0 0 0 0 0 0 0 3 7 6 2 1 1 0 0 0 0 0 0 0 0 0 0 0 0 0 0 0 0 0 0 0 0 13 21 18 5 2 1 0 0 0 0 0 0 0 0 0 0 0 0 0 0 0 0 0 0 0 0 31 40 31 8 3 2 1 0 0 0 0 0 0 0 0 0 0 0 0 0 0 0 0 0 0 0 61 55 38 12 7 4 2 2 1 1 0 0 0 0 0 0 0 0 0 0 0 0 0 0 0 0 102 86 71 51 39 33 23 21 17 7 2 0 0 0 0 0 0 0 0 0 0 0 1 0 0 0 183 179 188 170 148 141 126 151 129 49 9 1 0 0 0 0 0 0 0 0 0 1 1 0 0 0 218 230 245 247 244 240 233 234 217 127 26 2 0 0 0 0 0 0 0 0 0 1 1 0 0 0 227 241 250 252 252 250 244 234 222 156 44 4 0 0 0 0 0 0 0 0 0 1 0 0 0 0 235 238 243 246 242 236 210 174 184 142 45 5 1 0 0 0 0 0 0 0 0 1 0 0 0 0 232 230 220 208 172 145 112 95 131 109 31 3 1 0 0 0 0 0 0 0 0 0 0 0 0 0 196 215 189 139 87 63 50 38 55 48 14 2 1 0 0 0 0 0 0 0 0 0 0 0 0 0 1 1 1 1 1 1 0 0 0 1 0 0 1 1 1 1 0 0 0 0 0 0 0 0 0 0 3 4 5 5 5 4 2 1 1 2 2 1 2 1 1 1 1 1 1 0 0 0 0 0 0 0 6 9 9 8 9 10 7 3 4 6 6 4 3 2 2 1 1 1 1 1 1 0 0 0 0 0 8 10 8 7 8 11 9 5 7 13 14 11 7 4 3 2 1 1 1 1 0 0 0 0 0 0 7 8 7 5 6 8 10 9 10 16 21 19 12 5 2 1 1 1 1 0 0 0 0 0 0 0 6 7 7 6 6 8 11 11 11 16 22 21 13 5 2 1 1 1 0 0 0 0 0 1 0 0 7 9 8 7 6 7 9 10 11 15 18 18 13 5 1 1 1 0 0 0 0 0 1 1 0 0 9 13 15 14 11 9 8 7 6 9 11 12 9 4 1 1 1 1 0 0 0 0 1 1 1 0 10 17 31 41 37 24 12 6 3 3 4 4 3 2 1 1 1 1 0 0 0 1 1 1 1 0 8 13 31 43 39 27 12 5 2 1 2 1 1 1 1 1 0 0 0 0 0 1 1 1 1 0 5 7 16 19 16 13 8 4 2 1 1 1 0 0 0 0 0 0 0 0 0 1 1 1 1 0 4 6 10 13 15 13 7 3 1 1 1 1 0 0 0 0 0 0 0 1 1 1 1 1 1 0 4 7 9 11 16 15 8 3 1 1 1 0 0 0 0 0 0 0 0 1 1 1 2 1 1 0 7 9 10 10 12 13 8 2 1 0 1 1 1 0 0 0 0 0 0 0 1 1 2 2 1 0 11 13 12 12 11 9 7 2 0 0 0 1 1 1 0 0 0 0 0 0 1 1 2 2 1 0 26 27 20 14 10 5 5 3 1 0 0 1 1 1 1 0 0 0 0 1 1 1 2 2 1 0 47 59 45 21 12 6 4 3 1 0 0 0 1 1 1 1 0 0 0 1 1 1 2 2 1 0 70 80 63 28 17 14 9 3 2 1 0 0 1 1 1 1 1 1 1 1 1 2 2 2 1 0 105 92 71 37 21 22 16 6 4 2 1 1 0 0 1 1 1 1 1 1 1 2 3 2 1 0 150 128 101 73 43 40 33 29 25 10 3 1 1 1 1 1 1 1 1 1 1 2 3 3 1 0 199 199 198 173 132 122 120 155 142 61 12 2 1 1 1 1 0 0 1 1 1 2 3 3 2 0 225 234 244 243 239 235 229 234 226 155 33 7 3 1 1 1 0 0 1 1 1 2 3 3 1 0 236 242 249 251 250 249 244 238 233 187 52 10 3 2 1 1 1 1 1 1 1 2 3 2 1 1 239 241 245 245 240 238 226 205 210 174 55 8 3 2 1 1 1 1 1 1 1 2 2 2 2 1 234 232 228 223 202 192 181 155 164 134 42 6 2 1 1 1 1 1 1 1 1 2 2 2 1 1 207 219 190 160 124 116 120 94 77 58 22 5 2 1 1 1 1 1 1 1 2 2 2 2 1 0 16 22 30 35 37 36 22 14 21 26 21 13 12 11 10 6 3 3 2 2 1 1 1 1 2 2 33 47 48 39 43 43 27 19 30 40 34 22 16 12 10 9 9 8 7 5 4 4 3 3 3 2 58 68 57 43 52 60 48 37 48 62 57 40 26 17 13 11 10 10 9 7 6 5 4 4 3 1 61 65 50 39 48 59 59 51 56 73 74 62 44 26 16 11 9 8 7 6 5 5 4 5 4 1 46 46 36 31 37 45 54 53 52 69 80 77 58 33 17 10 8 6 6 5 5 4 5 5 4 1 38 40 34 27 31 41 53 52 48 59 73 75 59 35 18 9 7 5 5 4 4 5 5 6 5 2 34 39 35 28 28 39 50 48 40 45 57 64 55 35 20 11 7 6 5 4 4 5 6 7 5 2 35 41 44 41 39 42 48 42 28 26 37 48 47 33 19 12 8 7 6 5 5 6 7 8 6 2 43 55 69 79 81 71 55 37 19 14 22 29 28 22 15 10 7 7 6 6 5 6 7 9 6 2 39 50 67 81 86 78 53 31 16 12 16 17 15 11 9 7 5 5 6 6 6 6 8 9 7 2 27 34 44 48 53 52 39 24 14 13 15 14 11 8 6 5 4 4 5 6 6 7 9 9 7 3 29 43 50 50 53 54 39 20 12 12 14 13 9 7 5 4 3 3 4 5 7 8 9 9 8 4 43 65 75 64 60 60 39 18 9 10 14 14 11 7 4 3 3 3 3 4 6 8 9 10 10 7 59 82 94 74 52 47 31 16 7 7 13 18 16 10 6 3 3 2 3 3 5 7 9 10 11 10 60 79 95 80 50 33 25 14 6 5 9 17 19 15 9 5 3 3 3 3 4 6 9 11 12 11 66 77 85 79 56 31 23 16 6 3 5 11 15 15 11 7 5 4 3 4 5 6 8 11 12 11 94 111 96 77 68 50 34 23 12 4 3 6 10 11 9 7 6 5 4 4 5 7 8 11 12 11 129 147 121 80 74 82 68 41 21 9 5 5 6 7 6 6 5 5 5 5 5 7 8 11 12 11 169 166 140 102 83 100 89 49 23 13 9 6 6 5 5 5 5 5 5 5 5 7 9 11 11 10 200 190 168 147 118 120 99 61 45 31 19 10 8 7 8 6 5 5 5 5 5 7 10 12 12 11 220 222 216 198 168 153 138 162 166 103 37 20 18 17 14 10 7 5 4 4 5 7 10 12 12 12 232 237 239 234 230 225 219 232 234 186 68 44 46 41 28 14 7 6 5 4 5 7 9 11 12 12 240 242 243 243 243 243 241 241 240 209 87 44 46 44 31 16 9 6 4 3 5 8 10 11 12 12 241 240 237 235 235 237 236 230 227 196 84 24 18 19 17 14 11 7 5 4 5 8 10 11 12 12 233 230 212 207 208 216 219 207 192 151 69 21 9 7 8 10 10 9 6 5 5 7 9 10 11 11 205 210 161 140 134 150 164 145 111 76 48 25 10 6 7 8 9 9 7 5 5 6 8 10 11 8 93 121 119 109 107 115 93 74 93 98 83 63 48 36 28 26 19 22 21 19 18 15 14 13 12 3 133 138 125 105 111 125 109 91 104 115 106 85 67 49 37 34 33 35 35 33 30 27 25 23 20 13 152 143 115 97 120 144 139 121 120 130 128 113 91 67 50 42 40 39 38 36 32 30 28 29 25 14 143 126 97 91 123 149 151 137 123 126 130 126 109 82 59 47 42 38 34 31 28 26 26 30 28 16 124 113 93 85 110 136 147 138 119 115 121 124 114 89 60 43 37 33 30 27 26 26 26 32 30 17 113 113 103 88 96 123 142 138 121 111 109 109 104 88 65 45 34 29 27 25 25 26 28 33 30 18 103 106 108 99 101 118 138 138 121 105 98 96 94 86 68 50 37 31 29 26 24 27 29 33 31 18 100 105 109 110 115 123 132 127 106 88 83 83 82 77 65 52 41 35 32 28 25 27 30 33 29 11 105 114 117 125 136 137 128 109 86 74 71 69 65 62 57 49 39 35 32 30 27 28 31 34 29 10 95 108 114 126 139 137 121 94 75 73 73 67 57 49 44 36 29 28 29 30 30 30 32 34 28 10 85 107 114 119 126 126 115 89 70 75 81 72 55 43 36 29 23 23 26 30 31 31 33 34 28 11 109 141 149 144 137 133 120 90 65 67 79 74 56 40 31 24 19 19 21 26 30 32 33 33 28 11 142 171 181 172 154 139 118 89 61 56 72 76 58 38 26 20 17 16 17 21 26 30 33 33 30 15 153 176 190 183 159 129 97 74 52 45 61 75 65 43 26 18 15 14 15 17 22 27 31 35 33 19 142 161 180 182 162 120 80 58 41 34 44 64 69 54 35 21 16 15 15 17 21 26 31 38 37 26 133 149 162 169 163 134 97 63 35 24 28 47 60 54 40 28 20 18 18 20 23 27 31 41 40 27 157 177 166 154 160 155 133 87 39 21 22 37 48 46 37 29 24 23 23 23 24 27 31 40 41 22 184 204 184 150 151 168 162 118 55 26 25 34 40 35 28 24 23 26 27 26 25 27 30 39 41 23 205 214 197 167 157 174 170 130 68 36 35 41 44 36 27 21 22 26 27 25 24 26 30 39 40 22 220 220 209 195 183 180 163 124 82 60 56 59 58 51 43 31 26 26 25 22 22 25 30 38 38 22 227 228 224 212 199 183 164 170 171 129 85 82 81 74 65 50 40 37 30 23 23 27 30 37 38 23 231 234 231 220 214 204 200 226 234 200 115 104 118 120 102 68 48 50 43 29 23 28 34 39 39 23 236 236 232 224 225 225 228 240 244 220 126 97 122 130 108 68 48 46 38 26 24 34 41 45 42 30 236 234 221 211 219 226 232 238 239 214 122 65 76 80 66 50 44 36 24 20 25 34 40 45 42 34 226 223 188 172 192 211 220 225 221 184 106 51 38 36 35 35 35 29 21 18 21 27 32 38 38 33 190 195 141 127 137 158 171 176 163 120 81 55 37 31 31 31 30 27 21 17 18 24 30 35 36 25 160 187 178 165 163 176 168 150 153 156 147 128 107 88 73 68 62 64 64 62 62 60 60 57 53 33 193 189 175 162 167 185 182 166 162 164 159 145 125 105 87 79 75 75 76 75 75 74 73 70 64 55 199 187 168 160 177 197 198 185 173 169 169 162 144 121 101 91 86 83 83 83 83 83 83 82 75 64 193 181 167 167 185 201 203 193 177 167 167 167 152 126 105 96 91 88 86 84 83 84 84 87 84 73 186 182 175 172 186 199 203 196 181 166 163 164 152 127 104 94 90 88 86 84 84 84 84 89 88 78 183 184 182 176 181 193 200 197 185 171 162 157 149 130 107 94 88 85 85 83 81 82 83 87 87 79 180 183 184 180 183 189 195 197 189 175 161 151 146 134 113 95 85 82 81 79 76 76 78 81 83 76 181 186 186 184 187 188 188 186 180 168 154 143 139 132 115 94 81 77 76 74 72 73 75 78 77 65 181 190 189 188 190 186 179 169 161 154 141 131 128 126 114 94 78 73 72 72 71 72 74 77 73 61 179 192 191 189 189 181 170 153 143 140 133 124 119 117 109 91 73 67 67 70 72 74 76 77 72 58 181 198 198 191 186 178 167 147 132 132 132 123 113 107 101 87 70 63 65 69 72 76 79 79 72 58 193 211 212 205 194 184 170 147 125 121 126 122 109 98 92 82 69 62 62 66 71 78 83 84 78 62 204 218 222 218 206 192 173 148 120 109 118 120 108 93 85 79 71 64 63 65 71 79 86 92 87 71 205 216 223 223 214 196 172 143 112 97 106 115 108 92 81 76 72 68 66 67 71 78 85 95 94 79 199 209 217 222 217 200 172 136 101 85 92 105 108 97 82 73 70 71 71 71 74 79 85 96 99 89 196 206 209 215 216 208 187 142 92 77 82 97 104 97 84 73 68 70 73 76 78 80 84 94 97 88 203 215 211 206 211 214 204 159 92 75 87 105 108 96 81 72 66 66 69 72 74 76 77 85 90 80 210 223 216 202 204 212 210 176 109 88 102 122 125 106 85 75 70 66 64 64 65 67 70 78 85 76 217 225 218 206 203 208 207 181 129 105 115 134 143 131 109 92 83 76 67 59 58 61 66 75 84 76 224 225 220 213 207 202 197 175 135 122 129 143 153 152 141 122 107 97 79 60 54 58 65 76 85 78 227 226 222 215 206 195 190 186 175 158 146 151 157 161 161 150 137 125 103 73 56 58 65 80 89 79 227 227 223 213 202 193 199 221 229 206 164 153 164 174 174 159 145 139 127 100 68 59 67 86 94 80 227 226 220 210 205 203 215 238 243 225 169 146 163 173 163 140 126 124 115 92 67 63 74 89 94 84 225 222 209 196 201 209 219 237 242 224 170 136 144 141 123 108 107 100 79 58 54 63 72 83 86 82 216 215 192 172 180 197 208 227 231 207 158 127 122 112 98 93 96 90 69 50 49 56 63 73 80 78 177 193 175 163 160 171 183 198 193 161 128 116 116 114 105 93 88 84 69 52 48 54 60 71 79 62 115 137 127 119 119 132 131 115 108 110 107 95 81 69 57 51 49 48 48 48 49 49 49 47 45 32 142 136 126 119 124 139 140 126 116 114 112 103 90 76 65 58 55 53 53 53 55 55 56 54 50 46 145 138 128 124 133 148 151 141 127 120 118 113 99 83 72 66 62 59 59 60 62 64 64 63 59 53 144 142 138 136 143 152 154 146 134 124 121 118 103 82 70 67 65 64 65 65 66 67 67 68 65 61 143 145 144 144 148 154 155 149 140 129 124 121 105 81 69 68 67 67 67 67 68 68 68 69 69 67 143 145 146 145 149 153 153 151 144 134 128 123 110 87 71 66 66 67 67 67 66 65 65 67 68 67 144 147 146 144 147 148 148 149 145 137 128 121 113 96 76 63 61 62 63 63 60 59 60 61 63 64 146 152 149 144 145 143 140 139 139 133 122 114 110 99 80 61 54 54 55 56 55 55 56 57 58 58 147 157 155 149 145 138 131 124 122 119 109 102 102 98 83 64 52 50 50 52 53 54 55 55 55 54 149 163 160 151 143 132 121 111 104 101 94 88 90 91 84 68 53 48 48 50 52 55 56 56 54 52 155 169 164 152 141 129 115 103 93 88 84 80 81 82 79 69 55 47 47 49 52 57 59 58 55 52 159 172 169 158 145 133 115 99 88 81 79 76 75 74 73 67 56 49 48 49 52 59 64 65 62 56 158 171 174 168 156 143 122 101 84 75 74 74 72 70 68 66 59 54 51 51 54 60 67 73 71 64 157 168 174 174 165 153 133 105 80 68 69 70 70 67 65 65 62 59 57 56 57 61 67 76 77 73 155 166 171 173 169 161 143 108 76 63 64 68 69 66 62 61 61 62 61 60 61 63 67 75 80 78 154 165 167 169 169 167 153 112 71 60 64 69 69 65 60 56 55 58 62 63 64 64 65 70 75 77 154 167 166 163 166 169 162 121 71 63 74 84 81 69 59 54 51 51 54 57 59 58 58 60 67 72 155 169 166 160 161 166 163 130 84 75 88 104 105 87 68 61 55 48 45 47 48 49 51 53 61 66 161 168 164 159 157 158 156 132 97 88 98 114 122 113 94 80 70 59 48 42 41 44 47 51 60 66 167 167 162 158 152 147 146 127 101 98 104 115 126 129 121 107 94 82 63 44 39 41 46 53 63 69 168 165 159 153 144 138 141 135 123 119 113 113 122 132 135 130 119 106 86 58 40 39 45 58 68 70 166 163 157 148 139 134 146 165 170 153 123 110 114 126 134 131 123 114 104 83 53 39 44 62 73 71 163 160 153 144 138 136 153 187 197 173 128 105 109 115 115 108 102 98 92 76 51 39 46 61 70 70 159 156 145 134 133 137 152 186 197 175 132 108 107 101 88 81 83 80 64 45 37 39 45 54 62 64 153 151 137 122 121 129 140 169 178 157 123 105 103 93 78 74 77 74 56 38 35 37 41 48 57 61 116 138 133 122 116 119 128 142 138 117 97 93 98 98 88 77 73 71 58 41 36 37 40 48 57 47 0 0 0 0 0 0 0 0 0 0 0 0 0 0 0 0 0 0 0 0 0 0 0 0 0 0 0 0 0 0 0 0 0 0 0 0 0 0 0 0 0 0 0 0 0 0 0 0 0 0 0 0 0 0 0 0 0 0 0 0 0 0 0 0 0 0 0 0 0 0 0 0 0 0 0 0 0 0 0 0 0 0 0 0 0 0 0 0 0 0 0 0 0 0 0 0 0 0 0 0 0 0 0 0 0 0 0 0 0 0 0 0 0 0 0 0 0 0 0 0 0 0 0 0 0 0 0 0 0 0 0 0 0 0 0 0 0 0 0 0 0 0 0 0 0 0 0 0 0 0 0 0 0 0 0 0 0 0 0 0 0 0 0 0 0 0 0 0 0 0 0 0 0 0 0 0 0 0 0 0 0 0 0 0 0 0 0 0 0 0 0 0 0 0 0 0 0 0 0 0 0 0 0 0 0 0 0 0 0 0 0 0 0 0 0 0 0 0 0 0 0 0 0 0 0 0 0 0 0 0 0 0 0 0 0 0 0 0 0 0 0 0 0 0 0 0 0 0 0 0 0 0 0 0 0 0 0 0 0 0 0 0 0 0 0 0 0 0 0 0 0 0 0 0 0 0 0 0 0 0 0 0 0 0 0 0 0 0 0 0 0 0 0 0 0 0 0 0 0 0 0 0 0 0 0 0 0 0 0 0 0 0 0 0 0 0 0 0 0 0 0 0 0 0 0 0 0 0 0 0 0 0 0 0 0 0 0 0 0 0 0 0 0 0 0 0 0 0 0 0 0 0 0 0 0 0 0 0 0 0 0 0 0 0 0 0 0 0 0 0 0 0 0 0 0 0 0 0 0 0 0 0 0 0 0 0 0 0 0 0 0 0 0 0 0 0 0 0 0 0 0 0 0 0 0 0 0 0 0 0 0 0 0 0 0 0 0 0 0 0 0 0 0 0 0 0 0 0 0 0 0 0 0 0 0 0 0 0 0 0 0 0 0 0 0 0 0 0 0 0 0 0 0 0 0 0 0 0 0 0 0 0 0 0 0 0 0 0 0 0 0 0 0 0 0 0 0 0 0 0 0 0 0 0 0 0 0 0 0 0 0 0 0 0 0 0 0 0 0 0 0 0 0 0 0 0 0 0 0 0 0 0 0 0 0 0 0 0 0 0 0 0 0 0 0 0 0 0 0 0 0 0 0 0 0 0 0 0 0 0 0 0 0 0 0 0 0 0 0 0 0 0 0 0 0 0 0 0 0 0 0 0 0 0 0 0 0 0 0 0 0 0 0 0 0 0 0 0 0 0 0 0 0 0 0 0 0 0 0 0 0 0 0 0 0 0 0 0 0 0 0 0 0 0 0 0 0 0 0 0 0 0 0 0 0 0 0 0 0 0 0 0 0 0 0 0 0 0 0 0 0 0 0 0 0 0 0 0 0 0 0 0 0 0 0 0 0 0 0 0 0 0 0 0 0 0 0 0 0 0 0 0 0 0 0 0 0 0 0 0 0 0 0 0 0 0 
</DataArray>
<DataArray Name="HRRPUV" NumberOfComponents="1" type="UInt8" format="ascii">