<?xml version="1.0"?>
<VTKFile type="ImageData" version="1.0" byte_order="LittleEndian" header_type="UInt64">
<ImageData WholeExtent="25 50 0 25 0 15"
 Origin="15.0000 0.0000 0.0000" Spacing="0.6000 0.6000 0.6000">
<Piece Extent="25 50 0 25 0 15">
<PointData>
<DataArray Name="TEMPERATURE" NumberOfComponents="1" type="Float32" format="ascii">
20.0 20.0 20.0 20.0 20.0 20.0 20.0 20.0 20.0 20.0 20.0 20.0 20.0 20.0 20.0 20.0 20.0 20.0 20.0 20.0 20.0 20.0 20.1 20.1 20.1 20.1 20.1 20.1 20.1 20.1 20.1 20.1 20.1 20.1 20.1 20.1 20.1 20.1 20.1 20.1 20.1 20.1 20.1 20.1 20.1 20.1 20.1 20.1 20.1 20.1 20.1 20.1 20.1 20.1 20.2 20.2 20.2 20.2 20.2 20.2 20.2 20.2 20.2 20.2 20.1 20.1 20.1 20.1 20.1 20.2 20.2 20.2 20.2 20.2 20.2 20.2 20.1 20.1 20.2 20.2 20.2 20.2 20.3 20.2 20.2 20.3 20.3 20.3 20.3 20.2 20.2 20.2 20.2 20.2 20.3 20.3 20.3 20.3 20.3 20.3 20.3 20.2 20.1 20.1 20.3 20.3 20.3 20.3 20.3 20.3 20.3 20.3 20.4 20.4 20.4 20.4 20.3 20.3 20.4 20.4 20.4 20.4 20.4 20.4 20.4 20.4 20.3 20.2 20.1 20.0 20.4 20.4 20.4 20.5 20.5 20.5 20.4 20.5 20.5 20.5 20.5 20.5 20.5 20.5 20.5 20.5 20.5 20.5 20.5 20.5 20.5 20.4 20.3 20.2 20.1 20.0 20.5 20.5 20.6 20.6 20.6 20.6 20.6 20.7 20.7 20.7 20.7 20.7 20.7 20.7 20.7 20.7 20.6 20.6 20.6 20.5 20.5 20.4 20.3 20.2 20.1 20.0 20.7 20.7 20.7 20.8 20.8 20.8 20.8 20.9 21.0 21.0 20.9 20.8 20.8 20.8 20.8 20.8 20.7 20.7 20.6 20.6 20.5 20.4 20.3 20.2 20.1 20.0 20.8 20.9 20.9 21.0 21.1 21.0 21.1 21.1 21.2 21.2 21.1 21.0 21.0 21.0 20.9 20.9 20.8 20.8 20.7 20.6 20.5 20.4 20.3 20.2 20.1 20.0 21.0 21.0 21.1 21.2 21.3 21.3 21.3 21.4 21.5 21.4 21.3 21.2 21.1 21.1 21.0 21.0 20.9 20.8 20.8 20.7 20.6 20.4 20.3 20.2 20.1 20.0 21.1 21.2 21.3 21.5 21.6 21.6 21.6 21.7 21.7 21.6 21.4 21.4 21.3 21.2 21.2 21.1 21.0 20.9 20.8 20.7 20.6 20.4 20.3 20.2 20.1 20.0 21.3 21.4 21.5 21.7 21.8 21.9 22.0 22.1 22.0 21.8 21.6 21.6 21.5 21.4 21.3 21.2 21.1 21.0 20.9 20.7 20.6 20.4 20.3 20.2 20.1 20.0 21.4 21.6 21.7 21.9 22.1 22.2 22.4 22.4 22.3 22.0 21.9 21.8 21.7 21.5 21.4 21.3 21.2 21.1 20.9 20.8 20.6 20.4 20.3 20.2 20.1 20.0 21.6 21.8 22.0 22.2 22.4 22.6 22.8 22.8 22.6 22.3 22.1 22.0 21.9 21.7 21.6 21.4 21.3 21.2 21.0 20.8 20.6 20.4 20.3 20.2 20.1 20.0 21.8 22.0 22.3 22.5 22.8 23.2 23.3 23.2 23.0 22.7 22.5 22.3 22.1 21.9 21.7 21.6 21.4 21.2 21.0 20.8 20.6 20.4 20.3 20.2 20.1 20.0 22.1 22.3 22.6 22.9 23.3 23.8 23.9 23.9 23.5 23.1 22.8 22.6 22.3 22.1 21.9 21.7 21.5 21.2 21.0 20.8 20.6 20.4 20.3 20.2 20.1 20.0 22.4 22.7 23.0 23.4 23.9 24.4 24.7 24.7 24.3 23.6 23.2 22.9 22.6 22.3 22.0 21.8 21.5 21.2 21.0 20.8 20.6 20.4 20.3 20.2 20.1 20.0 22.7 23.1 23.5 24.1 24.8 25.4 25.6 25.5 24.9 24.2 23.6 23.2 22.8 22.5 22.2 21.9 21.6 21.3 21.0 20.8 20.6 20.5 20.4 20.2 20.1 20.1 23.1 23.6 24.1 24.9 25.9 26.6 27.1 26.7 25.7 24.8 24.1 23.6 23.1 22.7 22.4 22.0 21.7 21.4 21.1 20.9 20.7 20.5 20.4 20.3 20.1 20.1 23.6 24.1 24.8 26.4 28.3 30.4 34.9 33.4 27.4 25.7 24.8 24.2 23.6 23.1 22.6 22.2 21.8 21.5 21.2 20.9 20.7 20.6 20.4 20.3 20.1 20.1 24.6 25.1 26.1 28.5 30.6 33.6 41.9 39.1 31.0 26.8 25.7 24.9 24.2 23.5 22.8 22.3 21.9 21.5 21.2 20.9 20.7 20.6 20.4 20.3 20.1 20.1 25.5 26.4 27.8 31.4 34.2 20.0 20.0 42.0 36.0 28.6 26.7 25.7 24.7 23.7 22.9 22.4 21.9 21.5 21.1 20.9 20.7 20.5 20.4 20.2 20.1 20.1 25.2 26.5 28.7 33.1 36.1 20.0 20.0 41.9 36.9 29.8 27.0 25.8 24.5 23.6 22.9 22.3 21.8 21.4 21.1 20.9 20.7 20.6 20.4 20.2 20.1 20.1 24.4 25.7 27.9 30.8 31.8 31.0 32.5 34.7 32.6 28.0 25.9 25.0 24.0 23.4 22.8 22.3 21.8 21.4 21.2 20.9 20.7 20.6 20.4 20.3 20.1 20.1 23.8 24.8 26.0 27.5 28.7 29.6 30.4 30.0 27.8 25.6 24.7 24.1 23.5 23.0 22.6 22.2 21.8 21.4 21.2 20.9 20.7 20.6 20.4 20.3 20.1 20.1 22.6 23.9 24.5 25.4 26.5 27.3 27.6 26.9 25.6 24.6 24.0 23.5 23.0 22.6 22.3 22.0 21.6 21.3 21.1 20.8 20.7 20.5 20.4 20.3 20.1 20.1 20.0 20.0 20.0 20.0 20.0 20.0 20.0 20.0 20.0 20.0 20.0 20.0 20.0 20.0 20.0 20.0 20.0 20.0 20.0 20.0 20.0 20.0 20.1 20.1 20.1 20.1 20.1 20.1 20.1 20.1 20.1 20.1 20.1 20.1 20.1 20.1 20.1 20.1 20.1 20.1 20.1 20.1 20.1 20.1 20.1 20.1 20.1 20.1 20.1 20.1 20.1 20.1 20.1 20.1 20.1 20.1 20.2 20.1 20.1 20.2 20.2 20.2 20.2 20.1 20.1 20.1 20.1 20.1 20.1 20.1 20.2 20.2 20.2 20.2 20.2 20.2 20.1 20.1 20.2 20.2 20.2 20.2 20.2 20.2 20.2 20.2 20.3 20.3 20.2 20.2 20.2 20.2 20.2 20.2 20.2 20.3 20.3 20.3 20.3 20.3 20.3 20.2 20.1 20.1 20.3 20.3 20.3 20.3 20.3 20.3 20.3 20.3 20.4 20.4 20.4 20.3 20.3 20.3 20.3 20.4 20.4 20.4 20.4 20.4 20.4 20.3 20.3 20.2 20.1 20.0 20.4 20.4 20.4 20.4 20.4 20.4 20.4 20.5 20.5 20.5 20.5 20.5 20.5 20.5 20.5 20.5 20.5 20.5 20.5 20.4 20.4 20.4 20.3 20.2 20.1 20.0 20.5 20.5 20.6 20.6 20.6 20.6 20.6 20.7 20.7 20.7 20.7 20.6 20.6 20.6 20.6 20.6 20.6 20.6 20.5 20.5 20.5 20.4 20.3 20.2 20.1 20.0 20.6 20.7 20.7 20.8 20.8 20.8 20.8 20.9 21.0 20.9 20.9 20.8 20.8 20.8 20.8 20.7 20.7 20.6 20.6 20.5 20.5 20.4 20.3 20.2 20.1 20.0 20.8 20.8 20.9 21.0 21.1 21.1 21.1 21.2 21.2 21.2 21.1 21.0 20.9 20.9 20.9 20.8 20.8 20.7 20.7 20.6 20.5 20.4 20.3 20.2 20.1 20.0 20.9 21.0 21.1 21.2 21.3 21.3 21.4 21.4 21.5 21.4 21.2 21.2 21.1 21.1 21.0 20.9 20.9 20.8 20.7 20.6 20.5 20.4 20.3 20.2 20.1 20.0 21.1 21.2 21.3 21.5 21.6 21.6 21.7 21.8 21.7 21.6 21.4 21.3 21.3 21.2 21.1 21.0 20.9 20.9 20.8 20.7 20.6 20.4 20.3 20.2 20.1 20.0 21.2 21.4 21.5 21.7 21.8 21.9 22.0 22.1 22.0 21.8 21.6 21.5 21.5 21.4 21.3 21.1 21.1 21.0 20.9 20.7 20.6 20.4 20.3 20.2 20.1 20.0 21.4 21.6 21.7 22.0 22.1 22.3 22.4 22.5 22.3 22.1 21.9 21.8 21.7 21.5 21.4 21.3 21.2 21.0 20.9 20.7 20.6 20.4 20.3 20.2 20.1 20.0 21.6 21.8 22.0 22.3 22.6 22.8 22.9 22.9 22.7 22.4 22.2 22.0 21.9 21.7 21.6 21.4 21.3 21.1 20.9 20.8 20.6 20.4 20.3 20.2 20.1 20.0 21.9 22.1 22.3 22.6 23.0 23.3 23.5 23.4 23.1 22.8 22.5 22.3 22.1 21.9 21.7 21.6 21.4 21.2 21.0 20.8 20.6 20.4 20.3 20.2 20.1 20.0 22.2 22.4 22.7 23.1 23.5 24.0 24.2 24.1 23.7 23.2 22.9 22.6 22.4 22.1 21.9 21.7 21.5 21.2 21.0 20.8 20.6 20.4 20.3 20.2 20.1 20.0 22.5 22.8 23.2 23.7 24.3 24.8 25.1 25.0 24.4 23.8 23.4 23.0 22.7 22.4 22.1 21.8 21.5 21.3 21.0 20.8 20.6 20.4 20.3 20.2 20.1 20.0 22.8 23.3 23.8 24.6 25.5 26.2 26.3 25.9 25.1 24.4 23.8 23.4 22.9 22.6 22.2 21.9 21.6 21.3 21.0 20.8 20.6 20.5 20.3 20.2 20.1 20.0 23.3 23.8 24.4 25.7 27.0 28.2 29.2 28.1 26.1 25.1 24.4 23.8 23.3 22.8 22.4 22.1 21.7 21.4 21.1 20.9 20.7 20.5 20.4 20.2 20.1 20.1 23.8 24.5 25.4 27.4 31.5 37.7 50.2 44.8 28.5 26.2 25.2 24.4 23.8 23.2 22.7 22.3 21.9 21.5 21.2 20.9 20.7 20.6 20.4 20.3 20.1 20.1 24.8 25.7 27.0 31.5 58.6 133.5 200.9 120.5 35.9 28.1 26.1 25.1 24.4 23.7 23.0 22.4 22.0 21.6 21.2 20.9 20.7 20.6 20.4 20.3 20.1 20.1 25.9 27.1 28.8 36.9 95.7 325.0 452.9 188.6 46.8 33.4 27.4 26.0 24.9 23.9 23.1 22.5 22.0 21.6 21.2 20.9 20.7 20.5 20.4 20.2 20.1 20.1 25.8 27.6 30.8 40.3 109.5 280.4 318.8 138.0 46.1 34.4 27.7 26.1 24.8 23.9 23.1 22.5 21.9 21.5 21.2 20.9 20.7 20.5 20.4 20.2 20.1 20.1 24.7 26.5 29.9 37.8 72.5 97.8 90.1 65.0 36.6 29.0 26.3 25.2 24.2 23.5 22.9 22.4 21.9 21.5 21.2 20.9 20.7 20.6 20.4 20.3 20.1 20.1 24.0 25.0 26.5 30.5 33.5 33.2 33.5 33.7 30.0 26.1 25.0 24.3 23.6 23.1 22.6 22.2 21.8 21.5 21.2 20.9 20.7 20.6 20.4 20.3 20.1 20.1 22.7 24.0 24.7 25.9 27.1 28.1 28.6 27.9 26.2 24.9 24.3 23.7 23.2 22.7 22.4 22.0 21.7 21.4 21.1 20.8 20.7 20.5 20.4 20.3 20.1 20.1 20.0 20.0 20.0 20.0 20.0 20.0 20.0 20.0 20.0 20.0 20.0 20.0 20.0 20.0 20.0 20.0 20.0 20.0 20.0 20.0 20.0 20.0 20.0 20.1 20.1 20.1 20.1 20.1 20.1 20.1 20.1 20.1 20.1 20.1 20.1 20.1 20.1 20.1 20.1 20.1 20.1 20.1 20.1 20.1 20.1 20.1 20.1 20.1 20.1 20.1 20.1 20.1 20.1 20.1 20.1 20.1 20.1 20.1 20.1 20.1 20.2 20.2 20.1 20.1 20.1 20.1 20.1 20.1 20.1 20.1 20.1 20.1 20.2 20.2 20.2 20.2 20.1 20.1 20.2 20.2 20.2 20.2 20.2 20.2 20.2 20.2 20.2 20.2 20.2 20.2 20.2 20.2 20.2 20.2 20.2 20.2 20.2 20.2 20.2 20.2 20.2 20.2 20.1 20.0 20.2 20.2 20.3 20.3 20.3 20.3 20.3 20.3 20.3 20.4 20.3 20.3 20.3 20.3 20.3 20.3 20.3 20.3 20.3 20.3 20.3 20.3 20.2 20.2 20.1 20.0 20.3 20.4 20.4 20.4 20.4 20.4 20.4 20.5 20.5 20.5 20.5 20.5 20.4 20.4 20.4 20.4 20.4 20.4 20.4 20.4 20.3 20.3 20.2 20.2 20.1 20.0 20.5 20.5 20.5 20.6 20.6 20.6 20.6 20.7 20.7 20.7 20.7 20.6 20.6 20.6 20.6 20.6 20.5 20.5 20.5 20.4 20.4 20.3 20.2 20.2 20.1 20.0 20.6 20.6 20.7 20.8 20.8 20.8 20.9 20.9 21.0 20.9 20.8 20.8 20.7 20.7 20.7 20.6 20.6 20.6 20.5 20.5 20.4 20.3 20.2 20.1 20.1 20.0 20.7 20.8 20.9 21.0 21.1 21.1 21.1 21.2 21.2 21.1 21.0 20.9 20.9 20.8 20.8 20.7 20.7 20.6 20.6 20.5 20.4 20.4 20.2 20.1 20.1 20.0 20.9 21.0 21.1 21.2 21.3 21.4 21.4 21.5 21.5 21.4 21.2 21.1 21.0 21.0 20.9 20.8 20.8 20.7 20.6 20.6 20.5 20.4 20.2 20.1 20.1 20.0 21.0 21.1 21.3 21.5 21.6 21.7 21.8 21.8 21.8 21.6 21.4 21.3 21.2 21.1 21.0 20.9 20.9 20.8 20.7 20.6 20.5 20.4 20.2 20.1 20.1 20.0 21.2 21.3 21.5 21.7 21.9 22.0 22.1 22.2 22.1 21.8 21.6 21.5 21.4 21.3 21.2 21.1 21.0 20.9 20.8 20.7 20.5 20.4 20.2 20.1 20.1 20.0 21.4 21.6 21.8 22.0 22.3 22.5 22.6 22.6 22.4 22.1 21.9 21.8 21.6 21.5 21.3 21.2 21.1 21.0 20.8 20.7 20.5 20.4 20.2 20.1 20.1 20.0 21.6 21.9 22.1 22.4 22.8 23.0 23.1 23.1 22.8 22.5 22.3 22.1 21.9 21.7 21.5 21.4 21.2 21.1 20.9 20.7 20.5 20.4 20.2 20.1 20.1 20.0 21.9 22.2 22.5 23.0 23.4 23.7 23.8 23.7 23.3 23.0 22.7 22.4 22.2 21.9 21.7 21.5 21.3 21.1 20.9 20.7 20.5 20.4 20.2 20.2 20.1 20.0 22.3 22.6 23.0 23.5 24.0 24.4 24.7 24.5 24.0 23.5 23.1 22.8 22.5 22.2 21.9 21.7 21.4 21.2 21.0 20.8 20.5 20.4 20.3 20.2 20.1 20.0 22.6 23.1 23.6 24.8 25.7 25.9 26.1 25.6 24.8 24.1 23.6 23.2 22.8 22.4 22.1 21.8 21.5 21.3 21.0 20.8 20.6 20.4 20.3 20.2 20.1 20.0 23.1 23.6 24.6 29.0 30.3 28.6 28.6 27.0 25.7 24.9 24.2 23.7 23.2 22.7 22.3 22.0 21.7 21.4 21.1 20.8 20.6 20.4 20.3 20.2 20.1 20.0 23.6 24.5 26.8 33.6 35.0 33.1 34.8 31.8 27.6 25.8 24.9 24.2 23.6 23.0 22.6 22.2 21.8 21.5 21.2 20.9 20.7 20.5 20.3 20.2 20.1 20.0 24.2 26.0 29.9 37.1 42.5 52.0 74.1 62.5 33.4 28.0 25.9 24.9 24.1 23.5 22.9 22.4 22.0 21.6 21.3 20.9 20.7 20.5 20.4 20.2 20.1 20.1 25.4 27.6 31.8 46.2 98.8 192.6 278.8 193.2 56.8 33.7 27.3 25.7 24.8 23.9 23.3 22.7 22.2 21.7 21.3 21.0 20.7 20.5 20.4 20.2 20.1 20.0 26.6 28.7 33.2 58.1 164.2 338.9 445.1 290.9 95.3 50.6 29.5 26.8 25.5 24.3 23.5 22.8 22.2 21.7 21.3 20.9 20.7 20.5 20.4 20.2 20.1 20.0 26.5 29.0 36.4 65.0 165.5 277.5 330.3 242.0 105.5 53.8 29.9 26.9 25.5 24.3 23.5 22.8 22.2 21.7 21.3 20.9 20.7 20.5 20.4 20.2 20.1 20.0 25.4 27.5 34.1 54.9 101.4 122.3 144.0 138.5 72.9 36.4 27.4 25.8 24.7 23.8 23.2 22.6 22.1 21.6 21.3 20.9 20.7 20.5 20.4 20.2 20.1 20.1 24.4 25.4 27.7 35.6 41.0 41.4 51.6 55.2 39.1 27.4 25.7 24.7 23.9 23.3 22.8 22.3 21.9 21.5 21.2 20.9 20.7 20.5 20.4 20.2 20.1 20.1 22.9 24.4 25.3 27.1 29.0 30.3 31.4 30.0 27.3 25.7 24.9 24.1 23.5 22.9 22.5 22.1 21.7 21.4 21.1 20.8 20.6 20.5 20.3 20.2 20.1 20.1 20.0 20.0 20.0 20.0 20.0 20.0 20.0 20.0 20.0 20.0 20.0 20.0 20.0 20.0 20.0 20.0 20.0 20.0 20.0 20.0 20.0 20.0 20.0 20.1 20.1 20.1 20.0 20.1 20.1 20.1 20.1 20.1 20.1 20.1 20.1 20.1 20.1 20.1 20.1 20.0 20.0 20.0 20.1 20.1 20.1 20.1 20.1 20.1 20.1 20.1 20.1 20.1 20.1 20.1 20.1 20.1 20.1 20.1 20.1 20.1 20.2 20.2 20.1 20.1 20.1 20.1 20.1 20.1 20.1 20.1 20.1 20.1 20.1 20.1 20.1 20.1 20.1 20.1 20.2 20.2 20.2 20.2 20.2 20.2 20.2 20.2 20.2 20.2 20.2 20.2 20.2 20.2 20.2 20.2 20.2 20.2 20.2 20.2 20.2 20.2 20.2 20.2 20.1 20.0 20.2 20.3 20.3 20.3 20.3 20.3 20.3 20.3 20.4 20.4 20.4 20.3 20.3 20.3 20.3 20.3 20.3 20.3 20.3 20.3 20.3 20.2 20.2 20.2 20.1 20.0 20.3 20.4 20.4 20.5 20.5 20.5 20.5 20.5 20.5 20.5 20.5 20.5 20.4 20.4 20.4 20.4 20.4 20.4 20.4 20.3 20.3 20.3 20.2 20.1 20.1 20.0 20.5 20.5 20.6 20.6 20.7 20.7 20.7 20.7 20.8 20.7 20.7 20.6 20.6 20.6 20.6 20.5 20.5 20.5 20.4 20.4 20.3 20.3 20.2 20.1 20.1 20.0 20.6 20.7 20.7 20.8 20.9 20.9 20.9 21.0 21.0 20.9 20.9 20.8 20.7 20.7 20.7 20.6 20.6 20.5 20.5 20.4 20.4 20.3 20.2 20.1 20.1 20.0 20.7 20.8 20.9 21.0 21.1 21.1 21.2 21.2 21.2 21.2 21.0 20.9 20.9 20.8 20.8 20.7 20.6 20.6 20.5 20.5 20.4 20.3 20.2 20.1 20.1 20.0 20.9 21.0 21.1 21.2 21.4 21.4 21.5 21.5 21.5 21.4 21.2 21.1 21.0 21.0 20.9 20.8 20.7 20.7 20.6 20.5 20.4 20.3 20.2 20.1 20.1 20.0 21.0 21.2 21.3 21.5 21.6 21.7 21.8 21.9 21.8 21.6 21.4 21.3 21.2 21.1 21.0 20.9 20.8 20.8 20.7 20.6 20.5 20.4 20.2 20.1 20.1 20.0 21.2 21.4 21.6 21.8 22.0 22.1 22.2 22.3 22.1 21.9 21.7 21.6 21.4 21.3 21.2 21.1 21.0 20.8 20.7 20.6 20.5 20.4 20.2 20.1 20.1 20.0 21.4 21.6 21.8 22.1 22.4 22.6 22.7 22.7 22.5 22.2 22.0 21.8 21.7 21.5 21.4 21.2 21.1 21.0 20.8 20.7 20.5 20.4 20.2 20.1 20.1 20.0 21.7 21.9 22.2 22.5 22.9 23.1 23.3 23.2 22.9 22.6 22.4 22.1 22.0 21.7 21.6 21.4 21.2 21.0 20.9 20.7 20.6 20.4 20.2 20.1 20.1 20.0 22.0 22.2 22.6 23.1 23.5 23.8 24.0 24.0 23.5 23.1 22.8 22.5 22.3 22.0 21.8 21.5 21.3 21.1 21.0 20.8 20.6 20.4 20.3 20.1 20.1 20.0 22.3 22.7 23.2 23.7 24.3 24.7 25.1 24.9 24.3 23.7 23.3 22.9 22.6 22.3 22.0 21.7 21.5 21.2 21.0 20.8 20.6 20.4 20.3 20.2 20.1 20.0 22.7 23.3 24.5 25.9 26.3 26.7 27.1 26.3 25.2 24.5 23.9 23.4 23.0 22.6 22.2 21.9 21.6 21.3 21.1 20.8 20.6 20.4 20.3 20.2 20.1 20.0 23.2 24.1 28.4 33.8 32.5 30.2 30.3 28.2 26.3 25.3 24.6 23.9 23.4 22.9 22.4 22.1 21.7 21.4 21.1 20.9 20.6 20.4 20.3 20.2 20.1 20.0 25.2 28.2 37.4 45.8 40.2 36.2 38.2 34.3 28.9 26.5 25.4 24.6 23.9 23.3 22.7 22.3 21.9 21.6 21.2 20.9 20.7 20.5 20.3 20.2 20.1 20.0 26.8 32.9 45.5 54.6 51.1 60.1 78.9 65.2 38.9 29.8 26.6 25.4 24.4 23.7 23.1 22.6 22.1 21.7 21.4 21.0 20.8 20.5 20.4 20.2 20.1 20.1 28.8 36.4 51.5 77.3 126.5 208.1 273.1 207.1 91.8 45.2 29.0 26.4 25.2 24.3 23.5 22.9 22.4 21.9 21.4 21.1 20.8 20.5 20.4 20.2 20.1 20.0 30.3 36.9 57.7 114.0 225.6 363.6 444.3 348.8 185.5 86.8 34.8 27.7 26.1 24.8 23.8 23.1 22.5 21.9 21.4 21.0 20.7 20.5 20.4 20.2 20.1 20.0 28.5 33.6 56.5 116.9 205.5 309.7 389.0 344.3 210.2 92.1 34.7 27.9 26.1 24.7 23.8 23.1 22.4 21.9 21.4 21.0 20.7 20.5 20.4 20.2 20.1 20.0 26.1 29.6 45.1 77.6 106.4 157.1 231.5 221.4 124.1 49.9 28.8 26.6 25.2 24.2 23.5 22.8 22.3 21.8 21.4 21.0 20.8 20.5 20.4 20.2 20.1 20.0 24.8 26.2 32.0 41.6 46.8 62.1 90.6 82.2 45.7 29.1 26.5 25.3 24.3 23.6 23.0 22.5 22.1 21.7 21.3 21.0 20.7 20.5 20.4 20.2 20.1 20.1 23.2 24.9 26.2 28.8 31.7 34.2 35.3 32.1 28.1 26.5 25.5 24.6 23.8 23.2 22.7 22.2 21.8 21.5 21.2 20.9 20.7 20.5 20.3 20.2 20.1 20.0 20.0 20.0 20.0 20.0 20.0 20.0 20.0 20.0 20.0 20.0 20.0 20.0 20.0 20.0 20.0 20.0 20.0 20.0 20.0 20.0 20.0 20.0 20.0 20.1 20.1 20.1 20.1 20.1 20.1 20.1 20.1 20.1 20.1 20.1 20.1 20.1 20.1 20.1 20.1 20.1 20.1 20.1 20.1 20.1 20.1 20.1 20.1 20.1 20.1 20.1 20.1 20.1 20.1 20.1 20.1 20.2 20.1 20.1 20.1 20.2 20.2 20.2 20.2 20.1 20.1 20.1 20.1 20.1 20.1 20.1 20.1 20.2 20.2 20.2 20.2 20.2 20.1 20.1 20.2 20.2 20.2 20.2 20.2 20.2 20.2 20.3 20.3 20.3 20.3 20.2 20.2 20.2 20.2 20.2 20.2 20.2 20.2 20.2 20.2 20.2 20.2 20.2 20.1 20.1 20.3 20.3 20.3 20.4 20.4 20.4 20.4 20.4 20.4 20.4 20.4 20.4 20.4 20.4 20.4 20.4 20.4 20.3 20.3 20.3 20.3 20.3 20.2 20.2 20.1 20.0 20.4 20.4 20.5 20.5 20.5 20.5 20.5 20.6 20.6 20.6 20.6 20.5 20.5 20.5 20.5 20.5 20.5 20.4 20.4 20.4 20.3 20.3 20.2 20.2 20.1 20.0 20.5 20.6 20.7 20.7 20.7 20.7 20.8 20.8 20.9 20.8 20.8 20.7 20.7 20.6 20.6 20.6 20.5 20.5 20.5 20.4 20.4 20.3 20.3 20.2 20.1 20.0 20.7 20.7 20.8 20.9 21.0 21.0 21.0 21.1 21.1 21.0 20.9 20.9 20.8 20.8 20.7 20.7 20.6 20.6 20.5 20.5 20.4 20.3 20.3 20.2 20.1 20.0 20.8 20.9 21.0 21.1 21.2 21.2 21.3 21.4 21.3 21.3 21.1 21.0 21.0 20.9 20.9 20.8 20.7 20.6 20.6 20.5 20.5 20.4 20.3 20.2 20.1 20.0 21.0 21.1 21.2 21.3 21.4 21.5 21.6 21.7 21.6 21.5 21.3 21.2 21.1 21.1 21.0 20.9 20.8 20.7 20.7 20.6 20.5 20.4 20.3 20.2 20.1 20.0 21.1 21.2 21.4 21.6 21.7 21.8 21.9 22.0 21.9 21.7 21.5 21.4 21.3 21.2 21.1 21.0 20.9 20.8 20.7 20.6 20.5 20.4 20.3 20.2 20.1 20.0 21.3 21.4 21.6 21.8 22.0 22.1 22.3 22.4 22.2 22.0 21.8 21.7 21.6 21.4 21.3 21.2 21.0 20.9 20.8 20.7 20.6 20.4 20.3 20.2 20.1 20.0 21.5 21.7 21.9 22.2 22.4 22.6 22.8 22.8 22.6 22.3 22.1 22.0 21.8 21.6 21.5 21.3 21.2 21.0 20.9 20.8 20.6 20.4 20.3 20.2 20.1 20.0 21.7 22.0 22.3 22.6 22.8 23.0 23.3 23.4 23.1 22.8 22.5 22.3 22.1 21.9 21.7 21.5 21.3 21.1 21.0 20.8 20.6 20.5 20.3 20.2 20.1 20.0 22.0 22.3 22.6 23.0 23.4 23.7 24.0 24.1 23.7 23.3 22.9 22.7 22.4 22.2 21.9 21.7 21.5 21.3 21.1 20.8 20.6 20.5 20.3 20.2 20.1 20.0 22.4 22.9 23.4 23.8 24.2 24.6 25.0 25.0 24.4 23.9 23.5 23.1 22.8 22.4 22.1 21.8 21.6 21.4 21.1 20.9 20.7 20.5 20.3 20.2 20.1 20.0 22.8 24.2 25.8 25.9 25.8 26.4 26.9 26.4 25.4 24.6 24.1 23.6 23.2 22.7 22.4 22.0 21.7 21.4 21.2 20.9 20.7 20.5 20.3 20.2 20.1 20.0 23.6 27.0 32.1 33.0 29.0 28.1 29.8 28.4 26.5 25.5 24.8 24.2 23.6 23.1 22.6 22.2 21.9 21.6 21.3 21.0 20.7 20.5 20.3 20.2 20.1 20.0 28.8 38.8 47.8 47.2 34.9 32.0 36.9 33.7 29.0 26.8 25.7 24.8 24.1 23.5 22.9 22.5 22.1 21.7 21.4 21.1 20.8 20.6 20.4 20.2 20.1 20.1 34.6 52.6 64.4 62.0 45.1 48.4 63.1 53.8 38.3 29.8 26.9 25.7 24.7 23.9 23.3 22.8 22.3 21.9 21.5 21.2 20.9 20.6 20.4 20.3 20.1 20.1 36.5 60.5 86.2 103.5 100.2 148.6 207.2 166.8 96.3 49.1 29.8 26.8 25.6 24.6 23.8 23.1 22.6 22.1 21.6 21.2 20.9 20.6 20.4 20.3 20.1 20.1 35.1 59.8 111.1 172.2 179.9 274.1 389.3 331.7 218.9 103.7 36.2 28.1 26.5 25.1 24.1 23.3 22.7 22.1 21.6 21.2 20.9 20.6 20.4 20.2 20.1 20.1 31.2 53.1 108.6 172.4 168.0 272.5 408.5 366.8 248.1 106.8 35.8 28.2 26.4 25.1 24.1 23.3 22.7 22.1 21.6 21.2 20.9 20.6 20.4 20.2 20.1 20.1 27.5 43.4 78.9 104.9 95.1 167.9 262.4 230.4 133.0 52.7 29.3 26.9 25.5 24.5 23.7 23.0 22.5 22.0 21.6 21.2 20.9 20.6 20.4 20.3 20.1 20.1 25.1 31.7 46.3 52.6 51.0 72.0 99.5 83.1 46.3 30.2 26.9 25.6 24.6 23.9 23.2 22.7 22.3 21.8 21.5 21.1 20.8 20.6 20.4 20.3 20.1 20.1 23.3 26.6 29.4 31.2 33.2 36.0 37.3 34.4 29.6 26.9 25.8 24.9 24.1 23.4 22.9 22.4 22.0 21.7 21.4 21.0 20.8 20.6 20.4 20.2 20.1 20.1 20.0 20.0 20.0 20.0 20.0 20.0 20.0 20.0 20.0 20.1 20.0 20.0 20.0 20.0 20.0 20.0 20.0 20.0 20.0 20.0 20.0 20.0 20.1 20.1 20.1 20.1 20.1 20.1 20.1 20.1 20.1 20.1 20.1 20.1 20.1 20.1 20.1 20.1 20.1 20.1 20.1 20.1 20.1 20.1 20.1 20.1 20.1 20.1 20.1 20.1 20.1 20.1 20.1 20.1 20.2 20.2 20.2 20.1 20.2 20.2 20.2 20.2 20.2 20.2 20.2 20.2 20.2 20.2 20.2 20.2 20.2 20.2 20.2 20.2 20.2 20.2 20.1 20.1 20.2 20.2 20.3 20.3 20.3 20.2 20.2 20.3 20.3 20.3 20.3 20.3 20.3 20.3 20.3 20.3 20.3 20.3 20.3 20.3 20.3 20.3 20.3 20.2 20.1 20.1 20.3 20.3 20.4 20.4 20.4 20.4 20.4 20.4 20.5 20.5 20.5 20.4 20.4 20.4 20.4 20.4 20.4 20.4 20.4 20.4 20.3 20.3 20.3 20.2 20.1 20.1 20.5 20.5 20.6 20.6 20.6 20.6 20.6 20.7 20.7 20.7 20.7 20.6 20.6 20.6 20.6 20.6 20.5 20.5 20.5 20.4 20.4 20.4 20.3 20.2 20.1 20.0 20.6 20.7 20.7 20.8 20.8 20.8 20.9 20.9 21.0 20.9 20.9 20.8 20.8 20.7 20.7 20.7 20.6 20.6 20.5 20.5 20.4 20.4 20.3 20.2 20.1 20.0 20.7 20.8 20.9 21.0 21.0 21.0 21.1 21.2 21.2 21.2 21.1 21.0 20.9 20.9 20.8 20.8 20.7 20.7 20.6 20.5 20.5 20.4 20.3 20.2 20.1 20.0 20.9 21.0 21.1 21.2 21.3 21.3 21.4 21.5 21.5 21.4 21.2 21.1 21.1 21.0 21.0 20.9 20.8 20.7 20.7 20.6 20.5 20.4 20.3 20.2 20.1 20.0 21.0 21.1 21.3 21.4 21.5 21.5 21.7 21.8 21.7 21.6 21.4 21.3 21.2 21.2 21.1 21.0 20.9 20.8 20.8 20.7 20.6 20.5 20.3 20.2 20.1 20.0 21.2 21.3 21.5 21.6 21.8 21.9 22.0 22.1 22.0 21.8 21.6 21.5 21.4 21.3 21.3 21.1 21.0 20.9 20.8 20.7 20.6 20.5 20.3 20.2 20.1 20.0 21.3 21.5 21.7 21.9 22.0 22.2 22.4 22.4 22.3 22.1 21.9 21.8 21.7 21.6 21.4 21.3 21.2 21.1 20.9 20.8 20.7 20.5 20.4 20.2 20.1 20.0 21.5 21.7 22.0 22.2 22.4 22.6 22.8 22.9 22.7 22.4 22.2 22.1 21.9 21.8 21.6 21.4 21.3 21.2 21.0 20.9 20.7 20.5 20.4 20.2 20.1 20.0 21.7 22.0 22.3 22.5 22.8 23.0 23.3 23.4 23.2 22.8 22.6 22.4 22.2 22.0 21.8 21.6 21.4 21.3 21.1 20.9 20.7 20.5 20.4 20.2 20.1 20.0 22.0 22.3 22.6 22.9 23.3 23.6 24.0 24.1 23.7 23.3 23.0 22.8 22.5 22.3 22.0 21.8 21.6 21.4 21.2 21.0 20.8 20.5 20.4 20.2 20.1 20.0 22.4 23.0 23.5 23.7 24.0 24.4 24.8 24.8 24.4 23.9 23.5 23.2 22.9 22.6 22.3 22.0 21.7 21.5 21.3 21.0 20.8 20.6 20.4 20.2 20.1 20.0 23.1 25.0 26.0 25.6 25.4 25.6 26.0 26.0 25.3 24.6 24.1 23.7 23.2 22.9 22.5 22.2 21.9 21.6 21.3 21.1 20.8 20.6 20.4 20.2 20.1 20.1 27.3 31.0 31.5 29.0 26.3 26.6 28.1 27.6 26.3 25.5 24.8 24.2 23.7 23.2 22.8 22.4 22.0 21.7 21.4 21.1 20.9 20.6 20.4 20.3 20.1 20.1 39.8 49.8 47.7 38.1 29.0 30.5 33.9 31.6 28.6 26.7 25.6 24.9 24.2 23.6 23.1 22.6 22.3 21.9 21.6 21.3 21.0 20.7 20.5 20.3 20.1 20.1 54.6 77.4 74.2 51.7 34.9 39.4 46.8 44.2 36.4 29.1 26.8 25.8 24.8 24.1 23.5 23.0 22.5 22.1 21.7 21.4 21.0 20.7 20.5 20.3 20.1 20.1 62.0 101.5 115.5 87.6 54.2 74.6 110.5 108.4 79.6 44.3 29.4 26.9 25.7 24.8 24.0 23.3 22.7 22.3 21.8 21.4 21.0 20.7 20.5 20.3 20.1 20.1 57.3 108.0 160.0 145.1 104.7 175.8 263.6 255.3 185.5 85.5 32.4 28.0 26.5 25.3 24.3 23.5 22.9 22.3 21.8 21.4 21.0 20.7 20.4 20.3 20.1 20.1 51.7 101.2 161.9 148.5 118.2 216.8 320.6 316.4 220.2 88.8 32.2 28.0 26.5 25.3 24.3 23.5 22.9 22.3 21.8 21.4 21.0 20.7 20.4 20.3 20.1 20.1 40.3 73.5 113.0 103.3 82.7 132.9 192.4 199.4 132.5 50.9 29.1 26.8 25.6 24.7 24.0 23.2 22.7 22.2 21.8 21.4 21.0 20.7 20.5 20.3 20.1 20.1 26.9 39.8 58.1 60.7 53.6 59.7 73.7 79.5 58.6 32.6 26.9 25.7 24.8 24.1 23.5 22.9 22.5 22.1 21.7 21.3 21.0 20.7 20.5 20.3 20.1 20.1 23.8 28.4 32.0 33.6 34.4 35.5 36.7 37.4 32.8 27.0 25.8 25.0 24.2 23.6 23.0 22.6 22.2 21.9 21.5 21.2 20.9 20.7 20.4 20.3 20.1 20.1 20.0 20.0 20.0 20.0 20.0 20.0 20.0 20.0 20.0 20.1 20.1 20.0 20.0 20.0 20.0 20.0 20.0 20.0 20.0 20.0 20.1 20.1 20.1 20.1 20.1 20.1 20.1 20.1 20.1 20.1 20.1 20.1 20.1 20.1 20.1 20.1 20.1 20.1 20.1 20.1 20.1 20.1 20.1 20.1 20.1 20.1 20.1 20.1 20.1 20.2 20.1 20.1 20.1 20.1 20.2 20.2 20.2 20.2 20.2 20.2 20.2 20.2 20.2 20.2 20.2 20.2 20.2 20.2 20.2 20.2 20.2 20.2 20.2 20.3 20.3 20.2 20.2 20.1 20.2 20.2 20.3 20.3 20.3 20.3 20.3 20.3 20.3 20.4 20.4 20.3 20.3 20.3 20.3 20.4 20.4 20.4 20.4 20.4 20.3 20.3 20.3 20.3 20.1 20.1 20.3 20.4 20.4 20.4 20.4 20.4 20.4 20.5 20.5 20.6 20.6 20.5 20.5 20.5 20.5 20.5 20.5 20.5 20.5 20.5 20.4 20.4 20.3 20.3 20.1 20.1 20.5 20.5 20.6 20.6 20.6 20.6 20.6 20.7 20.8 20.8 20.8 20.7 20.7 20.7 20.7 20.6 20.6 20.6 20.6 20.5 20.5 20.4 20.4 20.3 20.1 20.1 20.6 20.7 20.8 20.8 20.8 20.8 20.9 21.0 21.0 21.0 21.0 20.9 20.8 20.8 20.8 20.8 20.7 20.7 20.6 20.6 20.5 20.5 20.4 20.3 20.1 20.1 20.8 20.9 21.0 21.0 21.1 21.1 21.1 21.3 21.3 21.3 21.1 21.0 21.0 20.9 20.9 20.9 20.8 20.7 20.7 20.6 20.6 20.5 20.4 20.2 20.1 20.1 20.9 21.0 21.1 21.2 21.3 21.3 21.4 21.5 21.5 21.4 21.3 21.2 21.1 21.1 21.0 21.0 20.9 20.8 20.8 20.7 20.6 20.5 20.4 20.2 20.1 20.1 21.0 21.2 21.3 21.4 21.5 21.6 21.7 21.8 21.8 21.6 21.5 21.3 21.3 21.2 21.2 21.1 21.0 20.9 20.8 20.8 20.7 20.6 20.4 20.2 20.1 20.1 21.1 21.3 21.5 21.6 21.7 21.8 22.0 22.1 22.0 21.8 21.7 21.5 21.5 21.4 21.3 21.2 21.1 21.0 20.9 20.8 20.7 20.6 20.4 20.2 20.1 20.1 21.3 21.5 21.7 21.8 22.0 22.1 22.3 22.4 22.3 22.1 21.9 21.8 21.7 21.6 21.5 21.3 21.2 21.1 21.0 20.9 20.8 20.6 20.4 20.2 20.1 20.1 21.5 21.7 21.9 22.1 22.3 22.6 22.8 22.8 22.7 22.4 22.2 22.0 21.9 21.8 21.6 21.5 21.4 21.2 21.1 21.0 20.8 20.6 20.4 20.2 20.1 20.1 21.7 21.9 22.2 22.4 22.7 23.0 23.3 23.3 23.1 22.8 22.5 22.4 22.2 22.0 21.9 21.7 21.5 21.4 21.2 21.0 20.8 20.6 20.4 20.2 20.1 20.1 21.9 22.2 22.6 22.8 23.2 23.6 23.9 23.9 23.6 23.2 23.0 22.7 22.5 22.3 22.1 21.9 21.7 21.5 21.3 21.1 20.9 20.6 20.4 20.2 20.1 20.1 22.3 22.8 23.2 23.5 23.8 24.2 24.5 24.6 24.3 23.8 23.4 23.1 22.9 22.6 22.3 22.0 21.8 21.6 21.4 21.1 20.9 20.6 20.4 20.2 20.1 20.1 23.3 24.5 24.9 25.1 25.1 25.0 25.3 25.5 25.2 24.5 24.0 23.6 23.2 22.9 22.5 22.2 21.9 21.7 21.4 21.2 20.9 20.7 20.4 20.3 20.1 20.1 29.3 30.9 28.2 25.7 25.7 26.6 26.8 26.8 26.2 25.3 24.7 24.2 23.6 23.2 22.8 22.4 22.1 21.8 21.6 21.3 21.0 20.7 20.5 20.3 20.1 20.1 45.9 50.6 39.4 28.8 28.4 31.9 31.5 30.3 28.5 26.7 25.6 24.8 24.1 23.6 23.1 22.7 22.4 22.0 21.7 21.4 21.1 20.8 20.5 20.3 20.2 20.1 78.6 91.4 65.5 36.2 35.7 41.4 42.4 46.0 40.0 29.7 27.0 25.7 24.8 24.1 23.6 23.1 22.6 22.3 21.9 21.5 21.1 20.8 20.5 20.3 20.2 20.1 105.7 135.7 103.3 53.3 53.2 63.2 73.2 96.7 79.0 40.4 29.4 26.8 25.6 24.8 24.1 23.4 22.9 22.4 22.0 21.5 21.1 20.8 20.5 20.3 20.2 20.1 100.2 151.8 136.7 91.7 123.1 160.4 182.8 214.9 157.4 63.0 31.1 27.7 26.4 25.4 24.4 23.6 23.0 22.5 22.0 21.5 21.1 20.7 20.5 20.3 20.1 20.1 94.3 146.3 137.9 105.4 160.4 215.3 240.3 270.2 190.7 69.1 30.9 27.7 26.3 25.2 24.4 23.6 23.0 22.4 22.0 21.5 21.1 20.7 20.5 20.3 20.1 20.1 73.5 105.8 108.2 90.9 106.3 128.7 147.3 181.1 135.9 50.4 29.1 26.8 25.5 24.7 24.1 23.4 22.8 22.4 22.0 21.5 21.1 20.8 20.5 20.3 20.2 20.1 39.8 53.9 64.9 64.8 55.9 53.3 61.0 80.2 67.4 33.6 26.9 25.7 24.7 24.1 23.5 23.0 22.6 22.2 21.8 21.5 21.1 20.8 20.5 20.3 20.2 20.1 27.6 33.4 34.6 35.3 35.2 34.7 35.3 36.8 33.0 26.9 25.7 24.9 24.1 23.6 23.1 22.6 22.3 22.0 21.7 21.3 21.0 20.7 20.5 20.3 20.2 20.1 20.0 20.0 20.0 20.0 20.0 20.0 20.0 20.0 20.0 20.1 20.1 20.0 20.0 20.0 20.0 20.0 20.0 20.1 20.1 20.1 20.1 20.1 20.1 20.1 20.1 20.2 20.1 20.1 20.1 20.1 20.1 20.1 20.1 20.1 20.1 20.1 20.1 20.1 20.1 20.1 20.1 20.1 20.1 20.1 20.1 20.1 20.1 20.2 20.2 20.2 20.2 20.1 20.1 20.1 20.2 20.2 20.2 20.2 20.2 20.2 20.2 20.2 20.2 20.2 20.2 20.2 20.2 20.2 20.2 20.3 20.3 20.3 20.3 20.3 20.3 20.3 20.2 20.1 20.2 20.2 20.3 20.3 20.3 20.3 20.3 20.3 20.4 20.4 20.4 20.4 20.4 20.4 20.4 20.4 20.4 20.4 20.4 20.4 20.4 20.4 20.4 20.3 20.2 20.1 20.4 20.4 20.4 20.4 20.4 20.4 20.4 20.5 20.6 20.6 20.6 20.5 20.5 20.5 20.5 20.6 20.6 20.5 20.5 20.5 20.5 20.4 20.4 20.3 20.2 20.1 20.5 20.6 20.6 20.6 20.6 20.6 20.7 20.7 20.8 20.9 20.8 20.7 20.7 20.7 20.7 20.7 20.7 20.6 20.6 20.6 20.5 20.5 20.4 20.3 20.1 20.1 20.6 20.7 20.8 20.8 20.9 20.9 20.9 21.0 21.1 21.1 21.0 20.9 20.8 20.8 20.8 20.8 20.7 20.7 20.7 20.6 20.6 20.5 20.4 20.3 20.1 20.1 20.8 20.9 21.0 21.0 21.1 21.1 21.1 21.3 21.3 21.3 21.1 21.0 21.0 20.9 20.9 20.9 20.8 20.8 20.7 20.7 20.6 20.6 20.4 20.3 20.1 20.1 20.9 21.0 21.1 21.2 21.3 21.3 21.4 21.5 21.5 21.4 21.3 21.2 21.1 21.1 21.0 21.0 20.9 20.8 20.8 20.7 20.7 20.6 20.5 20.3 20.1 20.1 21.0 21.1 21.3 21.4 21.4 21.5 21.6 21.8 21.7 21.6 21.4 21.3 21.2 21.2 21.1 21.1 21.0 20.9 20.9 20.8 20.7 20.6 20.5 20.3 20.1 20.1 21.1 21.3 21.4 21.5 21.6 21.8 21.9 22.0 22.0 21.8 21.6 21.5 21.4 21.4 21.3 21.2 21.1 21.0 20.9 20.9 20.8 20.6 20.5 20.3 20.1 20.1 21.2 21.4 21.6 21.7 21.9 22.0 22.3 22.4 22.3 22.0 21.8 21.7 21.6 21.5 21.4 21.3 21.2 21.1 21.0 21.0 20.8 20.7 20.5 20.3 20.1 20.1 21.4 21.6 21.8 22.0 22.2 22.5 22.7 22.7 22.6 22.3 22.1 22.0 21.9 21.7 21.6 21.5 21.3 21.2 21.1 21.0 20.9 20.7 20.5 20.3 20.1 20.1 21.6 21.8 22.0 22.3 22.6 22.9 23.1 23.2 23.0 22.7 22.4 22.3 22.1 22.0 21.8 21.6 21.5 21.4 21.2 21.1 20.9 20.7 20.5 20.3 20.1 20.1 21.8 22.1 22.3 22.6 23.0 23.4 23.7 23.7 23.5 23.1 22.8 22.6 22.4 22.2 22.0 21.8 21.6 21.5 21.3 21.1 20.9 20.7 20.5 20.3 20.1 20.1 22.2 22.6 22.8 23.2 23.6 23.9 24.3 24.4 24.1 23.6 23.3 23.0 22.7 22.5 22.2 22.0 21.8 21.6 21.4 21.2 20.9 20.7 20.4 20.3 20.1 20.1 23.2 23.8 23.9 24.3 24.7 24.7 25.0 25.2 24.9 24.3 23.9 23.5 23.1 22.7 22.4 22.1 21.9 21.7 21.5 21.2 21.0 20.7 20.5 20.3 20.1 20.1 28.2 28.3 25.8 24.8 25.8 26.0 26.5 26.7 26.1 25.2 24.5 24.0 23.5 23.1 22.7 22.3 22.1 21.8 21.6 21.3 21.0 20.8 20.5 20.3 20.1 20.1 41.2 41.7 32.2 26.7 29.3 29.9 30.8 30.6 29.1 27.2 25.6 24.6 24.0 23.5 23.0 22.7 22.3 22.1 21.8 21.5 21.1 20.8 20.5 20.3 20.2 20.1 83.2 79.1 50.6 33.6 38.4 38.8 41.7 47.4 41.8 30.7 27.3 25.5 24.7 24.0 23.5 23.1 22.7 22.3 22.0 21.6 21.2 20.9 20.6 20.3 20.2 20.1 131.8 132.4 82.5 51.4 64.9 65.1 68.6 88.4 72.3 37.3 29.9 26.7 25.5 24.7 24.0 23.4 22.9 22.4 22.0 21.6 21.2 20.8 20.5 20.3 20.2 20.1 138.8 164.0 122.9 110.1 145.1 143.4 150.0 167.7 115.9 46.2 31.5 27.5 26.1 25.2 24.4 23.6 23.0 22.5 22.0 21.6 21.2 20.8 20.5 20.3 20.1 20.1 131.3 165.9 136.4 142.6 183.6 185.8 192.9 195.3 130.1 49.1 31.0 27.6 26.1 25.1 24.4 23.7 23.0 22.4 22.0 21.6 21.2 20.8 20.5 20.3 20.1 20.1 105.1 129.3 115.7 111.9 118.0 118.9 124.0 129.1 96.1 41.0 29.1 26.8 25.5 24.5 24.0 23.5 22.9 22.4 22.0 21.6 21.2 20.8 20.5 20.3 20.2 20.1 57.6 74.0 78.2 69.8 55.9 51.5 55.2 61.3 51.6 30.8 26.9 25.7 24.7 23.9 23.4 23.0 22.6 22.3 21.9 21.6 21.2 20.8 20.5 20.3 20.2 20.1 30.2 41.2 42.9 37.4 33.7 32.6 33.3 32.7 29.8 26.7 25.6 24.7 23.9 23.4 23.0 22.6 22.3 22.0 21.7 21.4 21.1 20.8 20.5 20.3 20.2 20.1 20.0 20.0 20.0 20.0 20.0 20.0 20.0 20.0 20.0 20.0 20.0 20.0 20.0 20.0 20.0 20.0 20.1 20.1 20.1 20.1 20.1 20.1 20.1 20.1 20.2 20.2 20.1 20.1 20.1 20.1 20.1 20.1 20.1 20.1 20.1 20.1 20.1 20.1 20.1 20.1 20.1 20.1 20.1 20.1 20.1 20.1 20.2 20.2 20.2 20.2 20.2 20.2 20.1 20.1 20.1 20.2 20.2 20.2 20.1 20.2 20.2 20.2 20.2 20.2 20.2 20.2 20.2 20.2 20.3 20.3 20.3 20.3 20.3 20.3 20.3 20.3 20.2 20.1 20.2 20.2 20.3 20.3 20.3 20.3 20.3 20.3 20.4 20.4 20.4 20.4 20.4 20.4 20.4 20.4 20.4 20.4 20.4 20.4 20.4 20.4 20.4 20.3 20.2 20.1 20.4 20.4 20.4 20.4 20.4 20.4 20.5 20.5 20.6 20.6 20.6 20.6 20.5 20.5 20.6 20.6 20.6 20.6 20.5 20.5 20.5 20.4 20.4 20.3 20.2 20.1 20.5 20.6 20.6 20.6 20.6 20.6 20.7 20.8 20.8 20.9 20.8 20.7 20.7 20.7 20.7 20.7 20.7 20.6 20.6 20.5 20.5 20.5 20.4 20.3 20.2 20.1 20.6 20.7 20.8 20.8 20.8 20.8 20.9 21.0 21.1 21.1 21.0 20.9 20.8 20.8 20.8 20.8 20.7 20.7 20.6 20.6 20.6 20.5 20.5 20.3 20.2 20.1 20.8 20.8 20.9 21.0 21.0 21.0 21.1 21.2 21.3 21.2 21.1 21.0 20.9 20.9 20.9 20.8 20.8 20.7 20.7 20.6 20.6 20.6 20.5 20.3 20.1 20.1 20.9 21.0 21.1 21.1 21.2 21.2 21.3 21.4 21.5 21.4 21.2 21.1 21.0 21.0 21.0 20.9 20.9 20.8 20.8 20.7 20.7 20.6 20.5 20.3 20.1 20.1 21.0 21.1 21.2 21.3 21.3 21.4 21.6 21.6 21.7 21.5 21.4 21.2 21.2 21.1 21.1 21.0 20.9 20.9 20.8 20.8 20.7 20.6 20.5 20.3 20.1 20.1 21.1 21.2 21.3 21.4 21.5 21.7 21.8 21.9 21.9 21.7 21.5 21.4 21.3 21.3 21.2 21.1 21.0 21.0 20.9 20.8 20.8 20.7 20.5 20.3 20.1 20.1 21.2 21.3 21.5 21.6 21.7 21.9 22.1 22.2 22.1 21.9 21.7 21.6 21.5 21.4 21.4 21.3 21.2 21.1 21.0 20.9 20.8 20.7 20.5 20.3 20.1 20.1 21.3 21.5 21.7 21.9 22.0 22.3 22.5 22.6 22.4 22.2 22.0 21.9 21.7 21.6 21.5 21.4 21.3 21.2 21.1 21.0 20.9 20.7 20.5 20.3 20.1 20.1 21.5 21.7 21.9 22.1 22.4 22.7 23.0 23.0 22.8 22.5 22.3 22.1 22.0 21.8 21.7 21.5 21.4 21.3 21.2 21.0 20.9 20.7 20.5 20.3 20.1 20.1 21.7 22.0 22.1 22.3 22.7 23.1 23.5 23.5 23.3 22.9 22.7 22.5 22.3 22.1 21.9 21.7 21.5 21.4 21.2 21.1 20.9 20.7 20.5 20.3 20.1 20.1 22.1 22.4 22.5 22.8 23.2 23.7 24.1 24.2 23.8 23.4 23.1 22.8 22.6 22.3 22.1 21.8 21.6 21.5 21.3 21.1 20.9 20.7 20.5 20.3 20.1 20.1 23.0 23.3 23.3 23.7 24.1 24.6 25.0 25.0 24.5 24.0 23.6 23.3 22.9 22.6 22.3 22.0 21.8 21.6 21.4 21.2 21.0 20.7 20.5 20.3 20.1 20.1 27.3 26.7 25.4 24.7 24.9 25.7 27.2 27.9 26.6 25.0 24.1 23.7 23.3 22.9 22.5 22.2 21.9 21.7 21.5 21.3 21.1 20.8 20.5 20.3 20.1 20.1 36.8 34.9 31.5 28.0 27.1 29.0 32.6 33.2 30.6 27.5 25.2 24.3 23.8 23.3 22.9 22.5 22.2 22.0 21.8 21.5 21.2 20.9 20.6 2