<?xml version="1.0"?>
<VTKFile type="RectilinearGrid" version="1.0" byte_order="LittleEndian" header_type="UInt64">
<RectilinearGrid WholeExtent="25 50 25 50 0 15">
<Piece Extent="25 50 25 50 0 15">
<Coordinates>
<DataArray type="Float64" Name="Array X-Axis" format="ascii" RangeMin="15.0" RangeMax="30.0">
15.0 15.6 16.2 16.8 17.4 18.0 18.6 19.2 19.8 20.4 21.0 21.6 22.2 22.8 23.4 24.0 24.6 25.2 25.8 26.4 27.0 27.6 28.2 28.8 29.4 30.0 
</DataArray>
<DataArray type="Float64" Name="Array Y-Axis" format="ascii" RangeMin="15.0" RangeMax="30.0">
15.0 15.6 16.2 16.8 17.4 18.0 18.6 19.2 19.8 20.4 21.0 21.6 22.2 22.8 23.4 24.0 24.6 25.2 25.8 26.4 27.0 27.6 28.2 28.8 29.4 30.0 
</DataArray>
<DataArray type="Float64" Name="Array Z-Axis" format="ascii" RangeMin="0.0" RangeMax="9.0">
0.0 0.6 1.2 1.8 2.4 3.0 3.6 4.2 4.8 5.4 6.0 6.6 7.2 7.8 8.4 9.0 
</DataArray>
</Coordinates>
<PointData>
<DataArray Name="SOOT DENSITY" NumberOfComponents="1" type="UInt8" format="ascii">
0 0 0 1 1 2 2 0 0 0 0 0 0 0 0 0 0 0 0 0 0 0 0 0 0 0 0 0 0 0 0 0 0 0 0 0 0 0 0 0 0 0 0 0 0 0 0 0 0 0 0 0 0 0 0 0 0 0 0 0 0 0 0 0 0 0 0 0 0 0 0 0 0 0 0 0 0 0 0 0 0 0 0 0 0 0 0 0 0 0 0 0 0 0 0 0 0 0 0 0 0 0 0 0 0 0 0 0 0 0 0 0 0 0 0 0 0 0 0 0 0 0 0 0 0 0 0 0 0 0 0 0 0 0 0 0 0 0 0 0 0 0 0 0 0 0 0 0 0 0 0 0 0 0 0 0 0 0 0 0 0 0 0 0 0 0 0 0 0 0 0 0 0 0 0 0 0 0 0 0 0 0 0 0 0 0 0 0 0 0 0 0 0 0 0 0 0 0 0 0 0 0 0 0 0 0 0 0 0 0 0 0 0 0 0 0 0 0 0 0 0 0 0 0 0 0 0 0 0 0 0 0 0 0 0 0 0 0 0 0 0 0 0 0 0 0 0 0 0 0 0 0 0 0 0 0 0 0 0 0 0 0 0 0 0 0 0 0 0 0 0 0 0 0 0 0 0 0 0 0 0 0 0 0 0 0 0 0 0 0 0 0 0 0 0 0 0 0 0 0 0 0 0 0 0 0 0 0 0 0 0 0 0 0 0 0 0 0 0 0 0 0 0 0 0 0 0 0 0 0 0 0 0 0 0 0 0 0 0 0 0 0 0 0 0 0 0 0 0 0 0 0 0 0 0 0 0 0 0 0 0 0 0 0 0 0 0 0 0 0 0 0 0 0 0 0 0 0 0 0 0 0 0 0 0 0 0 0 0 0 0 0 0 0 0 0 0 0 0 0 0 0 0 0 0 0 0 0 0 0 0 0 0 0 0 0 0 0 0 0 0 0 0 0 0 0 0 0 0 0 0 0 0 0 0 0 0 0 0 0 0 0 0 0 0 0 0 0 0 0 0 0 0 0 0 0 0 0 0 0 0 0 0 0 0 0 0 0 0 0 0 0 0 0 0 0 0 0 0 0 0 0 0 0 0 0 0 0 0 0 0 0 0 0 0 0 0 0 0 0 0 0 0 0 0 0 0 0 0 0 0 0 0 0 0 0 0 0 0 0 0 0 0 0 0 0 0 0 0 0 0 0 0 0 0 0 0 0 0 0 0 0 0 0 0 0 0 0 0 0 0 0 0 0 0 0 0 0 0 0 0 0 0 0 0 0 0 0 0 0 0 0 0 0 0 0 0 0 0 0 0 0 0 0 0 0 0 0 0 0 0 0 0 0 0 0 0 0 0 0 0 0 0 0 0 0 0 0 0 0 0 0 0 0 0 0 0 0 0 0 0 0 0 0 0 0 0 0 0 0 0 0 0 0 0 0 0 0 0 0 0 0 0 0 0 0 0 0 0 0 0 0 0 0 0 0 0 0 0 0 0 0 0 0 0 0 0 0 0 0 0 0 0 0 0 0 0 0 0 1 4 27 29 6 1 0 0 0 0 0 0 0 0 0 0 0 0 0 0 0 0 0 0 0 0 0 0 0 0 0 0 0 0 0 0 0 0 0 0 0 0 0 0 0 0 0 0 0 0 0 0 0 0 0 0 0 0 0 0 0 0 0 0 0 0 0 0 0 0 0 0 0 0 0 0 0 0 0 0 0 0 0 0 0 0 0 0 0 0 0 0 0 0 0 0 0 0 0 0 0 0 0 0 0 0 0 0 0 0 0 0 0 0 0 0 0 0 0 0 0 0 0 0 0 0 0 0 0 0 0 0 0 0 0 0 0 0 0 0 0 0 0 0 0 0 0 0 0 0 0 0 0 0 0 0 0 0 0 0 0 0 0 0 0 0 0 0 0 0 0 0 0 0 0 0 0 0 0 0 0 0 0 0 0 0 0 0 0 0 0 0 0 0 0 0 0 0 0 0 0 0 0 0 0 0 0 0 0 0 0 0 0 0 0 0 0 0 0 0 0 0 0 0 0 0 0 0 0 0 0 0 0 0 0 0 0 0 0 0 0 0 0 0 0 0 0 0 0 0 0 0 0 0 0 0 0 0 0 0 0 0 0 0 0 0 0 0 0 0 0 0 0 0 0 0 0 0 0 0 0 0 0 0 0 0 0 0 0 0 0 0 0 0 0 0 0 0 0 0 0 0 0 0 0 0 0 0 0 0 0 0 0 0 0 0 0 0 0 0 0 0 0 0 0 0 0 0 0 0 0 0 0 0 0 0 0 0 0 0 0 0 0 0 0 0 0 0 0 0 0 0 0 0 0 0 0 0 0 0 0 0 0 0 0 0 0 0 0 0 0 0 0 0 0 0 0 0 0 0 0 0 0 0 0 0 0 0 0 0 0 0 0 0 0 0 0 0 0 0 0 0 0 0 0 0 0 0 0 0 0 0 0 0 0 0 0 0 0 0 0 0 0 0 0 0 0 0 0 0 0 0 0 0 0 0 0 0 0 0 0 0 0 0 0 0 0 0 0 0 0 0 0 0 0 0 0 0 0 0 0 0 0 0 0 0 0 0 0 0 0 0 0 0 0 0 0 0 0 0 0 0 0 0 0 0 0 0 0 0 0 0 0 0 0 0 0 0 0 0 0 0 0 0 0 0 0 0 0 0 0 0 0 0 0 0 0 0 0 0 0 0 0 0 0 0 0 0 0 0 0 0 0 0 0 0 0 0 0 0 0 0 0 0 0 0 0 0 0 0 0 0 0 0 0 0 0 0 0 0 0 0 0 0 0 0 0 0 0 0 0 0 0 0 0 0 0 0 0 0 0 0 0 0 0 0 0 0 0 0 0 0 0 0 0 0 0 0 0 0 0 0 0 0 0 0 0 0 0 0 0 0 0 0 0 0 0 0 0 0 0 0 0 0 0 0 0 0 0 0 0 0 0 0 0 0 0 0 0 0 0 0 0 0 0 0 0 0 0 0 0 0 0 0 0 0 0 0 0 0 0 0 0 0 0 0 0 0 0 0 0 0 0 0 0 0 5 12 35 35 8 1 0 0 0 0 0 0 0 0 0 0 0 0 0 0 0 0 0 0 0 0 1 1 1 1 0 0 0 0 0 0 0 0 0 0 0 0 0 0 0 0 0 0 0 0 0 0 0 0 0 0 0 0 0 0 0 0 0 0 0 0 0 0 0 0 0 0 0 0 0 0 0 0 0 0 0 0 0 0 0 0 0 0 0 0 0 0 0 0 0 0 0 0 0 0 0 0 0 0 0 0 0 0 0 0 0 0 0 0 0 0 0 0 0 0 0 0 0 0 0 0 0 0 0 0 0 0 0 0 0 0 0 0 0 0 0 0 0 0 0 0 0 0 0 0 0 0 0 0 0 0 0 0 0 0 0 0 0 0 0 0 0 0 0 0 0 0 0 0 0 0 0 0 0 0 0 0 0 0 0 0 0 0 0 0 0 0 0 0 0 0 0 0 0 0 0 0 0 0 0 0 0 0 0 0 0 0 0 0 0 0 0 0 0 0 0 0 0 0 0 0 0 0 0 0 0 0 0 0 0 0 0 0 0 0 0 0 0 0 0 0 0 0 0 0 0 0 0 0 0 0 0 0 0 0 0 0 0 0 0 0 0 0 0 0 0 0 0 0 0 0 0 0 0 0 0 0 0 0 0 0 0 0 0 0 0 0 0 0 0 0 0 0 0 0 0 0 0 0 0 0 0 0 0 0 0 0 0 0 0 0 0 0 0 0 0 0 0 0 0 0 0 0 0 0 0 0 0 0 0 0 0 0 0 0 0 0 0 0 0 0 0 0 0 0 0 0 0 0 0 0 0 0 0 0 0 0 0 0 0 0 0 0 0 0 0 0 0 0 0 0 0 0 0 0 0 0 0 0 0 0 0 0 0 0 0 0 0 0 0 0 0 0 0 0 0 0 0 0 0 0 0 0 0 0 0 0 0 0 0 0 0 0 0 0 0 0 0 0 0 0 0 0 0 0 0 0 0 0 0 0 0 0 0 0 0 0 0 0 0 0 0 0 0 0 0 0 0 0 0 0 0 0 0 0 0 0 0 0 0 0 0 0 0 0 0 0 0 0 0 0 0 0 0 0 0 0 0 0 0 0 0 0 0 0 0 0 0 0 0 0 0 0 0 0 0 0 0 0 0 0 0 0 0 0 0 0 0 0 0 0 0 0 0 0 0 0 0 0 0 0 0 0 0 0 0 0 0 0 0 0 0 0 0 0 0 0 0 0 0 0 0 0 0 0 0 0 0 0 0 0 0 0 0 0 0 0 0 0 0 0 0 0 0 0 0 0 0 0 0 0 0 0 0 0 0 0 0 0 0 0 0 0 0 0 0 0 0 0 0 0 0 0 0 0 0 0 0 0 0 0 0 0 0 0 0 0 0 0 0 0 0 0 0 0 0 0 0 0 0 0 0 0 0 0 0 0 0 0 0 0 0 0 0 0 0 0 0 0 0 0 0 0 0 0 0 0 0 0 0 0 0 0 0 0 0 0 0 0 0 0 0 0 0 0 0 0 0 0 1 3 15 24 24 16 6 1 0 0 0 0 0 0 0 0 0 0 0 0 0 0 0 0 0 0 0 1 2 3 2 1 0 0 0 0 0 0 0 0 0 0 0 0 0 0 0 0 0 0 0 0 0 0 0 0 0 0 0 0 0 0 0 0 0 0 0 0 0 0 0 0 0 0 0 0 0 0 0 0 0 0 0 0 0 0 0 0 0 0 0 0 0 0 0 0 0 0 0 0 0 0 0 0 0 0 0 0 0 0 0 0 0 0 0 0 0 0 0 0 0 0 0 0 0 0 0 0 0 0 0 0 0 0 0 0 0 0 0 0 0 0 0 0 0 0 0 0 0 0 0 0 0 0 0 0 0 0 0 0 0 0 0 0 0 0 0 0 0 0 0 0 0 0 0 0 0 0 0 0 0 0 0 0 0 0 0 0 0 0 0 0 0 0 0 0 0 0 0 0 0 0 0 0 0 0 0 0 0 0 0 0 0 0 0 0 0 0 0 0 0 0 0 0 0 0 0 0 0 0 0 0 0 0 0 0 0 0 0 0 0 0 0 0 0 0 0 0 0 0 0 0 0 0 0 0 0 0 0 0 0 0 0 0 0 0 0 0 0 0 0 0 0 0 0 0 0 0 0 0 0 0 0 0 0 0 0 0 0 0 0 0 0 0 0 0 0 0 0 0 0 0 0 0 0 0 0 0 0 0 0 0 0 0 0 0 0 0 0 0 0 0 0 0 0 0 0 0 0 0 0 0 0 0 0 0 0 0 0 0 0 0 0 0 0 0 0 0 0 0 0 0 0 0 0 0 0 0 0 0 0 0 0 0 0 0 0 0 0 0 0 0 0 0 0 0 0 0 0 0 0 0 0 0 0 0 0 0 0 0 0 0 0 0 0 0 0 0 0 0 0 0 0 0 0 0 0 0 0 0 0 0 0 0 0 0 0 0 0 0 0 0 0 0 0 0 0 0 0 0 0 0 0 0 0 0 0 0 0 0 0 0 0 0 0 0 0 0 0 0 0 0 0 0 0 0 0 0 0 0 0 0 0 0 0 0 0 0 0 0 0 0 0 0 0 0 0 0 0 0 0 0 0 0 0 0 0 0 0 0 0 0 0 0 0 0 0 0 0 0 0 0 0 0 0 0 0 0 0 0 0 0 0 0 0 0 0 0 0 0 0 0 0 0 0 0 0 0 0 0 0 0 0 0 0 0 0 0 0 0 0 0 0 0 0 0 0 0 0 0 0 0 0 0 0 0 0 0 0 0 0 0 0 0 0 0 0 0 0 0 0 0 0 0 0 0 0 0 0 0 0 0 0 0 0 0 0 0 0 0 0 0 0 0 0 0 0 0 0 0 0 0 0 0 0 0 0 0 0 0 0 0 0 0 0 0 0 0 0 0 0 0 0 0 0 0 0 0 0 0 0 0 0 0 0 0 0 0 0 0 0 0 0 0 0 0 0 0 0 0 0 0 0 0 0 0 0 0 0 0 0 0 0 0 0 0 0 0 0 0 0 0 0 0 0 2 26 36 26 26 21 20 14 3 1 0 0 0 0 0 0 0 0 0 0 0 0 0 0 0 0 0 6 8 5 4 2 1 1 0 0 0 0 0 0 0 0 0 0 0 0 0 0 0 0 0 0 0 1 1 1 0 0 0 0 0 0 0 0 0 0 0 0 0 0 0 0 0 0 0 0 0 0 0 0 0 0 0 0 0 0 0 0 0 0 0 0 0 0 0 0 0 0 0 0 0 0 0 0 0 0 0 0 0 0 0 0 0 0 0 0 0 0 0 0 0 0 0 0 0 0 0 0 0 0 0 0 0 0 0 0 0 0 0 0 0 0 0 0 0 0 0 0 0 0 0 0 0 0 0 0 0 0 0 0 0 0 0 0 0 0 0 0 0 0 0 0 0 0 0 0 0 0 0 0 0 0 0 0 0 0 0 0 0 0 0 0 0 0 0 0 0 0 0 0 0 0 0 0 0 0 0 0 0 0 0 0 0 0 0 0 0 0 0 0 0 0 0 0 0 0 0 0 0 0 0 0 0 0 0 0 0 0 0 0 0 0 0 0 0 0 0 0 0 0 0 0 0 0 0 0 0 0 0 0 0 0 0 0 0 0 0 0 0 0 0 0 0 0 0 0 0 0 0 0 0 0 0 0 0 0 0 0 0 0 0 0 0 0 0 0 0 0 0 0 0 0 0 0 0 0 0 0 0 0 0 0 0 0 0 0 0 0 0 0 0 0 0 0 0 0 0 0 0 0 0 0 0 0 0 0 0 0 0 0 0 0 0 0 0 0 0 0 0 0 0 0 0 0 0 0 0 0 0 0 0 0 0 0 0 0 0 0 0 0 0 0 0 0 0 0 0 0 0 0 0 0 0 0 0 0 0 0 0 0 0 0 0 0 0 0 0 0 0 0 0 0 0 0 0 0 0 0 0 0 0 0 0 0 0 0 0 0 0 0 0 0 0 0 0 0 0 0 0 0 0 0 0 0 0 0 0 0 0 0 0 0 0 0 0 0 0 0 0 0 0 0 0 0 0 0 0 0 0 0 0 0 0 0 0 0 0 0 0 0 0 0 0 0 0 0 0 0 0 0 0 0 0 0 0 0 0 0 0 0 0 0 0 0 0 0 0 0 0 0 0 0 0 0 0 0 0 0 0 0 0 0 0 0 0 0 0 0 0 0 0 0 0 0 0 0 0 0 0 0 0 0 0 0 0 0 0 0 0 0 0 0 0 0 0 0 0 0 0 0 0 0 0 0 0 0 0 0 0 0 0 0 0 0 0 0 0 0 0 0 0 0 0 0 0 0 0 0 0 0 0 0 0 0 0 0 0 0 0 0 0 0 0 0 0 0 0 0 0 0 0 0 0 0 0 0 0 0 0 0 0 0 0 0 0 0 0 0 0 0 0 0 0 0 0 0 0 0 0 0 0 0 0 0 0 0 0 0 0 0 0 0 0 0 0 0 0 0 0 0 0 0 0 0 0 0 0 0 0 0 0 0 0 0 0 0 0 0 0 0 0 0 0 0 0 0 5 43 58 34 20 17 26 21 5 1 0 0 0 0 0 0 0 0 0 0 0 0 0 0 0 0 1 10 14 7 3 2 2 1 0 0 0 0 0 0 0 0 0 0 0 0 0 0 0 0 0 0 0 1 2 1 0 0 0 0 0 0 0 0 0 0 0 0 0 0 0 0 0 0 0 0 0 0 0 0 0 0 0 0 0 0 0 0 0 0 0 0 0 0 0 0 0 0 0 0 0 0 0 0 0 0 0 0 0 0 0 0 0 0 0 0 0 0 0 0 0 0 0 0 0 0 0 0 0 0 0 0 0 0 0 0 0 0 0 0 0 0 0 0 0 0 0 0 0 0 0 0 0 0 0 0 0 0 0 0 0 0 0 0 0 0 0 0 0 0 0 0 0 0 0 0 0 0 0 0 0 0 0 0 0 0 0 0 0 0 0 0 0 0 0 0 0 0 0 0 0 0 0 0 0 0 0 0 0 0 0 0 0 0 0 0 0 0 0 0 0 0 0 0 0 0 0 0 0 0 0 0 0 0 0 0 0 0 0 0 0 0 0 0 0 0 0 0 0 0 0 0 0 0 0 0 0 0 0 0 0 0 0 0 0 0 0 0 0 0 0 0 0 0 0 0 0 0 0 0 0 0 0 0 0 0 0 0 0 0 0 0 0 0 0 0 0 0 0 0 0 0 0 0 0 0 0 0 0 0 0 0 0 0 0 0 0 0 0 0 0 0 0 0 0 0 0 0 0 0 0 0 0 0 0 0 0 0 0 0 0 0 0 0 0 0 0 0 0 0 0 0 0 0 0 0 0 0 0 0 0 0 0 0 0 0 0 0 0 0 0 0 0 0 0 0 0 0 0 0 0 0 0 0 0 0 0 0 0 0 0 0 0 0 0 0 0 0 0 0 0 0 0 0 0 0 0 0 0 0 0 0 0 0 0 0 0 0 0 0 0 0 0 0 0 0 0 0 0 0 0 0 0 0 0 0 0 0 0 0 0 0 0 0 0 0 0 0 0 0 0 0 0 0 0 0 0 0 0 0 0 0 0 0 0 0 0 0 0 0 0 0 0 0 0 0 0 0 0 0 0 0 0 0 0 0 0 0 0 0 0 0 0 0 0 0 0 0 0 0 0 0 0 0 0 0 0 0 0 0 0 0 0 0 0 0 0 0 0 0 0 0 0 0 0 0 0 0 0 0 0 0 0 0 0 0 0 0 0 0 0 0 0 0 0 0 0 0 0 0 0 0 0 0 0 0 0 0 0 0 0 0 0 0 0 0 0 0 0 0 0 0 0 0 0 0 0 0 0 0 0 0 0 0 0 0 0 0 0 0 0 0 0 0 0 0 0 0 0 0 0 0 0 0 0 0 0 0 0 0 0 0 0 0 0 0 0 0 0 0 0 0 0 0 0 0 0 0 0 0 0 0 0 0 0 0 0 0 0 0 0 0 0 0 0 0 0 0 0 0 0 0 0 0 0 0 0 0 0 0 0 0 0 0 0 0 0 0 0 0 0 0 0 0 0 0 16 73 97 63 28 18 23 17 4 1 0 0 0 0 0 0 0 0 0 0 0 0 0 0 0 0 3 24 32 16 6 2 2 1 0 0 0 0 0 0 0 0 0 0 0 0 0 0 0 0 0 0 0 3 4 2 1 0 0 0 0 0 0 0 0 0 0 0 0 0 0 0 0 0 0 0 0 0 0 0 0 0 0 0 0 0 0 0 0 0 0 0 0 0 0 0 0 0 0 0 0 0 0 0 0 0 0 0 0 0 0 0 0 0 0 0 0 0 0 0 0 0 0 0 0 0 0 0 0 0 0 0 0 0 0 0 0 0 0 0 0 0 0 0 0 0 0 0 0 0 0 0 0 0 0 0 0 0 0 0 0 0 0 0 0 0 0 0 0 0 0 0 0 0 0 0 0 0 0 0 0 0 0 0 0 0 0 0 0 0 0 0 0 0 0 0 0 0 0 0 0 0 0 0 0 0 0 0 0 0 0 0 0 0 0 0 0 0 0 0 0 0 0 0 0 0 0 0 0 0 0 0 0 0 0 0 0 0 0 0 0 0 0 0 0 0 0 0 0 0 0 0 0 0 0 0 0 0 0 0 0 0 0 0 0 0 0 0 0 0 0 0 0 0 0 0 0 0 0 0 0 0 0 0 0 0 0 0 0 0 0 0 0 0 0 0 0 0 0 0 0 0 0 0 0 0 0 0 0 0 0 0 0 0 0 0 0 0 0 0 0 0 0 0 0 0 0 0 0 0 0 0 0 0 0 0 0 0 0 0 0 0 0 0 0 0 0 0 0 0 0 0 0 0 0 0 0 0 0 0 0 0 0 0 0 0 0 0 0 0 0 0 0 0 0 0 0 0 0 0 0 0 0 0 0 0 0 0 0 0 0 0 0 0 0 0 0 0 0 0 0 0 0 0 0 0 0 0 0 0 0 0 0 0 0 0 0 0 0 0 0 0 0 0 0 0 0 0 0 0 0 0 0 0 0 0 0 0 0 0 0 0 0 0 0 0 0 0 0 0 0 0 0 0 0 0 0 0 0 0 0 0 0 0 0 0 0 0 0 0 0 0 0 0 0 0 0 0 0 0 0 0 0 0 0 0 0 0 0 0 0 0 0 0 0 0 0 0 0 0 0 0 0 0 0 0 0 0 0 0 0 0 0 0 0 0 0 0 0 0 0 0 0 0 0 0 0 0 0 0 0 0 0 0 0 0 0 0 0 0 0 0 0 0 0 0 0 0 0 0 0 0 0 0 0 0 0 0 0 0 0 0 0 0 0 0 0 0 0 0 0 0 0 0 0 0 0 0 0 0 0 0 0 0 0 0 0 0 0 0 0 0 0 0 0 0 0 0 0 0 0 0 0 0 0 0 0 0 0 0 0 0 0 0 0 0 0 0 0 0 0 0 0 0 0 0 0 0 0 0 0 0 0 0 0 0 0 0 0 0 0 0 0 0 0 0 0 0 0 0 0 0 0 0 0 0 0 0 0 0 0 0 0 0 0 0 0 0 0 0 0 0 0 0 0 0 22 110 143 100 47 19 13 10 4 1 0 0 0 0 0 0 0 0 0 0 0 0 0 0 0 0 4 39 53 30 13 3 1 1 0 0 0 0 0 0 0 0 0 0 0 0 0 0 0 0 0 0 0 4 5 2 1 0 0 0 0 0 0 0 0 0 0 0 0 0 0 0 0 0 0 0 0 0 0 0 0 0 0 0 0 0 0 0 0 0 0 0 0 0 0 0 0 0 0 0 0 0 0 0 0 0 0 0 0 0 0 0 0 0 0 0 0 0 0 0 0 0 0 0 0 0 0 0 0 0 0 0 0 0 0 0 0 0 0 0 0 0 0 0 0 0 0 0 0 0 0 0 0 0 0 0 0 0 0 0 0 0 0 0 0 0 0 0 0 0 0 0 0 0 0 0 0 0 0 0 0 0 0 0 0 0 0 0 0 0 0 0 0 0 0 0 0 0 0 0 0 0 0 0 0 0 0 0 0 0 0 0 0 0 0 0 0 0 0 0 0 0 0 0 0 0 0 0 0 0 0 0 0 0 0 0 0 0 0 0 0 0 0 0 0 0 0 0 0 0 0 0 0 0 0 0 0 0 0 0 0 0 0 0 0 0 0 0 0 0 0 0 0 0 0 0 0 0 0 0 0 0 0 0 0 0 0 0 0 0 0 0 0 0 0 0 0 0 0 0 0 0 0 0 0 0 0 0 0 0 0 0 0 0 0 0 0 0 0 0 0 0 0 0 0 0 0 0 0 0 0 0 0 0 0 0 0 0 0 0 0 0 0 0 0 0 0 0 0 0 0 0 0 0 0 0 0 0 0 0 0 0 0 0 0 0 0 0 0 0 0 0 0 0 0 0 0 0 0 0 0 0 0 0 0 0 0 0 0 0 0 0 0 0 0 0 0 0 0 0 0 0 0 0 0 0 0 0 0 0 0 0 0 0 0 0 0 0 0 0 0 0 0 0 0 0 0 0 0 0 0 0 0 0 0 0 0 0 0 0 0 0 0 0 0 0 0 0 0 0 0 0 0 0 0 0 0 0 0 0 0 0 0 0 0 0 0 0 0 0 0 0 0 0 0 0 0 0 0 0 0 0 0 0 0 0 0 0 0 0 0 0 0 0 0 0 0 0 0 0 0 0 0 0 0 0 0 0 0 0 0 0 0 0 0 0 0 0 0 0 0 0 0 0 0 0 0 0 0 0 0 0 0 0 0 0 0 0 0 0 0 0 0 0 0 0 0 0 0 0 0 0 0 0 0 0 0 0 0 0 0 0 0 0 0 0 0 0 0 0 0 0 0 0 0 0 0 0 0 0 0 0 0 0 0 0 0 0 0 0 0 0 0 0 0 0 0 0 0 0 0 0 0 0 0 0 0 0 0 0 0 0 0 0 0 0 0 0 0 0 0 0 0 0 0 0 0 0 0 0 0 0 0 0 0 0 0 0 0 0 0 0 0 0 0 0 0 0 0 0 0 0 0 0 0 0 0 0 0 0 0 0 0 0 0 0 0 0 0 0 0 0 0 0 0 0 15 102 136 95 48 15 7 8 7 2 0 0 0 0 0 0 0 0 0 0 0 0 0 0 0 0 2 28 40 26 13 3 1 1 1 0 0 0 0 0 0 0 0 0 0 0 0 0 0 0 0 0 0 2 3 2 1 0 0 0 0 0 0 0 0 0 0 0 0 0 0 0 0 0 0 0 0 0 0 0 0 0 0 0 0 0 0 0 0 0 0 0 0 0 0 0 0 0 0 0 0 0 0 0 0 0 0 0 0 0 0 0 0 0 0 0 0 0 0 0 0 0 0 0 0 0 0 0 0 0 0 0 0 0 0 0 0 0 0 0 0 0 0 0 0 0 0 0 0 0 0 0 0 0 0 0 0 0 0 0 0 0 0 0 0 0 0 0 0 0 0 0 0 0 0 0 0 0 0 0 0 0 0 0 0 0 0 0 0 0 0 0 0 0 0 0 0 0 0 0 0 0 0 0 0 0 0 0 0 0 0 0 0 0 0 0 0 0 0 0 0 0 0 0 0 0 0 0 0 0 0 0 0 0 0 0 0 0 0 0 0 0 0 0 0 0 0 0 0 0 0 0 0 0 0 0 0 0 0 0 0 0 0 0 0 0 0 0 0 0 0 0 0 0 0 0 0 0 0 0 0 0 0 0 0 0 0 0 0 0 0 0 0 0 0 0 0 0 0 0 0 0 0 0 0 0 0 0 0 0 0 0 0 0 0 0 0 0 0 0 0 0 0 0 0 0 0 0 0 0 0 0 0 0 0 0 0 0 0 0 0 0 0 0 0 0 0 0 0 0 0 0 0 0 0 0 0 0 0 0 0 0 0 0 0 0 0 0 0 0 0 0 0 0 0 0 0 0 0 0 0 0 0 0 0 0 0 0 0 0 0 0 0 0 0 0 0 0 0 0 0 0 0 0 0 0 0 0 0 0 0 0 0 0 0 0 0 0 0 0 0 0 0 0 0 0 0 0 0 0 0 0 0 0 0 0 0 0 0 0 0 0 0 0 0 0 0 0 0 0 0 0 0 0 0 0 0 0 0 0 0 0 0 0 0 0 0 0 0 0 0 0 0 0 0 0 0 0 0 0 0 0 0 0 0 0 0 0 0 0 0 0 0 0 0 0 0 0 0 0 0 0 0 0 0 0 0 0 0 0 0 0 0 0 0 0 0 0 0 0 0 0 0 0 0 0 0 0 0 0 0 0 0 0 0 0 0 0 0 0 0 0 0 0 0 0 0 0 0 0 0 0 0 0 0 0 0 0 0 0 0 0 0 0 0 0 0 0 0 0 0 0 0 0 0 0 0 0 0 0 0 0 0 0 0 0 0 0 0 0 0 0 0 0 0 0 0 0 0 0 0 0 0 0 0 0 0 0 0 0 0 0 0 0 0 0 0 0 0 0 0 0 0 0 0 0 0 0 0 0 0 0 0 0 0 0 0 0 0 0 0 0 0 0 0 0 0 0 0 0 0 0 0 0 0 0 0 0 0 0 0 0 0 0 0 0 0 0 0 0 0 0 0 0 0 0 13 67 94 69 39 18 11 15 17 7 1 0 0 0 0 0 0 0 0 0 0 0 0 0 0 0 4 16 28 25 16 7 3 3 2 1 0 0 0 0 0 0 0 0 0 0 0 0 0 0 0 0 1 3 7 8 5 2 1 0 0 0 0 0 0 0 0 0 0 0 0 0 0 0 0 0 0 0 0 0 0 1 1 0 0 0 0 0 0 0 0 0 0 0 0 0 0 0 0 0 0 0 0 0 0 0 0 0 0 0 0 0 0 0 0 0 0 0 0 0 0 0 0 0 0 0 0 0 0 0 0 0 0 0 0 0 0 0 0 0 0 0 0 0 0 0 0 0 0 0 0 0 0 0 0 0 1 0 0 0 0 0 0 0 0 0 0 0 0 0 1 0 0 0 0 0 0 0 0 0 0 0 1 1 0 0 0 0 0 0 0 0 0 0 0 0 0 0 0 0 0 0 0 0 0 0 0 0 1 1 0 0 0 0 0 0 0 0 0 0 0 0 0 0 0 0 0 0 0 0 0 0 0 0 1 1 1 0 0 0 0 0 0 0 0 0 0 0 0 0 0 0 0 0 0 0 0 0 0 0 1 1 1 0 0 0 0 0 0 0 0 0 0 0 0 0 0 0 0 0 0 0 0 0 0 0 1 1 1 1 1 0 0 0 0 0 0 0 0 0 0 0 0 0 0 0 0 0 0 0 0 0 1 1 1 1 1 0 0 0 0 0 0 0 0 0 0 0 0 0 0 0 0 0 0 0 0 0 1 1 1 1 0 0 0 0 0 0 0 0 0 0 0 0 0 0 0 0 0 0 0 0 0 0 1 1 1 0 0 0 0 0 0 0 0 0 0 0 0 0 0 0 0 0 0 0 0 0 0 0 2 1 0 0 0 0 0 0 0 0 0 0 0 0 0 0 0 0 0 0 0 0 0 0 0 0 1 1 0 0 0 0 0 0 0 0 0 0 0 0 0 0 0 0 0 0 0 0 0 0 0 0 1 1 0 0 0 0 0 0 0 0 0 0 0 0 0 0 0 0 0 0 0 0 0 0 0 0 1 1 1 0 0 0 0 0 0 0 0 0 0 0 0 0 0 0 0 0 0 0 0 0 0 0 1 1 1 0 0 0 0 0 0 0 0 0 0 0 0 0 0 0 0 0 0 0 0 0 0 0 0 0 0 0 0 0 0 0 0 0 0 0 0 0 0 0 0 0 0 0 0 0 0 0 0 0 0 0 0 0 0 0 0 0 0 0 0 0 0 0 0 0 0 0 0 0 0 0 0 0 0 0 0 0 0 0 0 0 0 0 0 0 0 0 0 0 0 0 0 0 0 0 0 0 0 0 0 0 0 0 0 0 0 0 0 0 0 0 0 0 0 0 0 0 0 0 0 0 0 0 0 0 0 0 0 0 0 0 0 0 0 0 0 0 0 0 0 0 0 0 0 0 0 0 0 0 0 0 0 0 0 0 0 0 0 0 0 0 0 0 0 0 0 0 0 0 0 0 0 0 0 0 0 0 0 0 30 68 96 93 70 50 39 45 37 13 3 2 2 2 2 2 2 1 1 1 1 1 1 1 0 0 15 25 57 79 69 41 26 19 8 3 2 2 2 2 3 3 3 2 3 3 2 1 1 1 0 0 7 8 24 53 51 20 10 10 5 2 1 2 2 3 3 4 4 4 4 4 3 2 1 1 0 0 4 2 3 17 19 6 2 3 2 1 1 2 2 3 4 5 6 6 5 4 3 1 1 1 0 0 3 1 1 3 5 3 2 2 1 1 1 2 3 4 5 7 8 7 5 3 2 1 1 1 0 0 4 2 1 1 2 2 2 2 2 2 2 3 4 5 7 9 9 7 4 2 1 1 0 0 0 0 5 4 2 2 2 2 2 3 3 3 3 4 5 6 9 11 9 5 2 1 1 0 0 0 0 0 7 6 4 3 2 2 2 3 4 4 4 5 5 5 7 9 6 3 1 1 1 0 0 0 0 0 7 7 5 3 3 3 3 4 4 4 5 5 4 4 5 5 3 1 1 1 1 0 0 0 0 0 7 7 6 4 4 4 4 4 3 4 5 5 4 3 2 2 2 1 1 1 0 0 0 0 0 0 6 6 6 6 7 7 5 3 2 3 5 5 4 3 2 2 1 1 1 1 0 0 0 0 0 0 6 7 7 8 10 11 5 2 2 3 4 4 3 2 2 1 1 1 1 1 0 0 0 0 0 0 6 9 11 10 12 11 5 2 2 2 3 3 3 2 2 1 1 1 1 1 0 0 0 0 0 0 6 9 11 9 10 8 4 2 1 2 2 3 3 2 2 1 1 1 1 1 1 0 0 0 0 0 7 6 7 6 6 5 3 2 1 1 2 2 3 2 2 1 1 1 1 1 1 1 1 0 0 0 11 5 5 4 4 3 2 2 1 1 2 2 3 3 2 2 1 1 1 1 1 1 1 0 0 0 10 5 4 4 3 3 2 2 2 2 2 3 3 3 2 2 2 1 1 1 1 1 1 0 0 0 8 6 4 4 3 2 2 2 2 2 2 2 3 3 3 2 2 2 1 1 1 1 1 0 0 0 10 8 5 4 3 3 2 2 2 2 3 3 3 3 3 3 2 2 2 2 1 1 1 1 0 0 8 6 4 3 3 3 3 2 2 2 3 3 3 3 3 3 3 2 2 2 1 1 1 1 1 0 3 2 3 3 3 3 3 2 1 2 3 3 3 3 3 3 3 2 2 1 1 1 1 1 1 0 2 2 3 3 3 3 3 2 1 1 2 3 3 2 2 2 2 1 1 1 1 1 1 1 1 0 2 2 3 3 3 3 2 2 1 1 2 3 2 2 2 1 1 1 1 1 1 1 1 1 0 0 1 1 2 2 2 2 1 1 1 1 2 2 2 1 1 1 1 1 1 1 0 1 1 1 0 0 1 0 0 1 1 1 1 0 1 1 1 1 1 1 0 0 0 0 0 0 0 0 0 0 0 0 0 0 0 0 0 0 0 0 0 0 0 0 0 0 0 0 0 0 0 0 0 0 0 0 0 0 95 147 163 165 139 107 96 96 69 39 30 18 11 12 13 14 14 13 12 11 10 10 9 9 7 2 62 85 128 157 146 115 98 73 36 22 18 13 12 14 16 19 20 19 16 14 12 11 9 8 6 2 41 46 75 114 115 84 66 44 19 9 8 10 12 15 19 24 28 26 21 17 16 14 11 8 6 2 33 29 31 46 51 35 25 18 11 6 8 10 12 16 22 29 34 32 25 21 19 15 10 8 6 2 20 15 15 20 22 18 20 20 13 9 10 11 14 20 27 35 38 34 27 23 19 13 8 8 6 2 14 11 10 13 15 17 24 26 18 13 12 13 17 25 33 39 39 33 27 21 15 10 8 8 6 2 21 21 16 12 12 17 28 31 23 19 18 17 21 28 35 39 36 30 23 17 12 9 8 7 5 1 31 34 27 17 13 18 29 33 26 24 25 25 26 28 33 35 30 23 17 13 10 8 7 6 4 1 42 43 35 23 17 21 28 32 28 26 27 29 28 27 28 27 21 16 13 11 9 7 6 6 4 1 50 47 39 30 25 28 31 32 29 26 28 30 29 25 22 19 16 13 12 10 8 6 6 6 4 1 51 45 41 37 37 42 40 32 26 26 27 29 28 23 18 16 14 13 11 9 7 6 6 5 4 1 50 45 44 42 51 57 41 25 20 23 25 24 23 19 16 15 13 12 11 8 7 7 6 6 4 1 52 53 53 52 62 63 37 17 14 18 19 19 17 15 15 14 12 11 10 8 7 8 8 7 5 1 48 54 57 57 61 56 35 13 10 12 13 14 15 15 15 15 11 10 10 10 8 9 9 8 5 2 43 47 49 47 43 43 33 13 10 10 10 13 17 16 15 14 11 10 12 12 10 9 9 9 5 3 43 40 38 32 26 29 26 15 12 11 11 17 21 18 14 13 13 12 14 14 11 9 8 8 5 4 39 33 31 26 21 20 20 18 17 13 13 20 22 19 15 14 15 14 15 15 12 10 8 7 5 3 34 28 26 26 22 16 17 20 19 14 14 19 21 19 17 17 16 16 16 15 12 11 9 6 4 2 34 28 23 23 21 16 16 17 15 13 15 19 21 20 20 19 18 17 17 16 12 11 9 8 5 3 28 23 19 20 19 19 18 14 12 13 16 21 23 22 23 23 20 19 19 17 12 10 9 8 6 3 20 17 16 18 18 21 21 16 12 13 19 25 25 23 26 25 21 19 18 16 12 9 8 8 5 2 17 14 16 18 19 22 23 19 15 15 20 27 26 22 24 22 19 17 16 13 10 8 7 6 5 2 19 17 14 16 23 27 23 19 19 19 20 26 25 20 18 17 16 14 13 10 8 8 7 6 5 2 18 15 10 14 25 31 23 16 19 22 23 26 24 17 14 13 13 11 10 8 6 6 6 6 6 3 12 7 5 10 23 29 20 11 15 22 26 25 18 11 9 10 10 8 7 5 4 4 4 5 5 4 6 2 1 4 18 25 16 9 13 21 27 24 14 7 6 8 7 6 5 3 2 1 2 2 3 3 152 199 210 215 202 178 164 147 108 83 70 50 43 47 48 48 48 47 41 37 36 35 34 34 28 10 128 153 183 204 199 184 173 139 81 55 48 43 46 51 54 58 62 60 50 41 38 36 33 31 24 9 100 116 143 164 168 164 154 113 53 30 35 41 47 52 58 68 74 72 60 47 42 38 32 29 24 9 86 97 116 114 110 120 120 86 45 35 46 47 46 52 63 75 82 79 66 52 46 40 32 29 25 9 61 69 100 111 94 93 100 82 59 60 65 52 46 55 70 81 84 78 65 54 47 39 34 32 26 13 45 48 75 100 93 81 86 85 83 86 72 50 49 63 76 83 81 71 60 52 44 40 37 34 26 17 60 56 58 70 69 68 87 102 106 95 69 54 58 69 78 80 72 62 53 48 43 42 39 34 26 16 80 78 65 52 50 71 106 123 112 88 70 67 69 73 76 71 61 52 46 45 42 40 37 32 24 12 96 93 77 61 61 84 116 122 100 78 75 78 77 75 71 62 52 46 43 43 39 35 32 29 23 8 108 101 84 75 78 90 104 105 89 81 83 86 83 75 64 54 48 46 44 41 36 31 29 29 24 8 113 104 91 87 90 95 97 96 91 91 92 93 88 74 59 51 48 47 43 38 34 31 29 31 27 10 117 109 102 97 103 111 107 99 95 97 99 97 87 69 55 51 48 45 41 35 32 33 34 37 32 11 121 116 113 111 120 129 116 95 86 93 97 90 74 58 53 53 48 42 38 35 34 39 40 43 35 11 117 116 117 122 130 135 116 79 66 80 86 74 59 50 54 56 47 39 39 40 40 44 45 46 36 11 112 112 114 120 120 125 111 63 49 64 68 59 52 51 55 54 46 42 45 49 47 48 47 44 33 16 110 110 105 100 91 103 98 59 49 54 54 54 55 55 55 51 48 49 55 58 55 52 46 41 32 23 103 107 98 82 66 75 76 60 59 53 52 58 61 59 56 53 54 56 60 63 58 53 46 38 30 17 90 97 90 76 60 55 57 59 58 50 51 60 64 61 57 56 61 65 66 64 56 49 42 35 27 15 79 79 75 69 61 53 53 53 48 44 50 61 64 60 59 63 68 71 68 62 52 44 40 34 26 16 76 69 62 63 65 63 59 53 44 41 50 62 63 60 68 77 79 77 71 62 49 41 37 34 27 16 77 70 61 61 68 72 68 61 50 45 52 63 64 68 82 88 83 78 71 61 48 39 36 34 28 16 75 70 61 61 70 76 76 73 66 59 60 68 73 80 89 88 82 75 65 53 43 38 36 34 30 19 80 74 59 59 75 85 83 78 76 77 75 79 85 85 79 76 72 67 57 44 37 36 36 35 31 20 83 75 55 54 77 95 90 73 70 81 87 92 94 85 70 65 63 56 44 34 32 33 35 35 33 24 74 59 40 42 67 92 88 59 51 72 92 96 86 70 57 53 48 39 29 25 24 28 30 32 32 23 48 45 23 17 49 85 79 41 25 59 91 93 75 53 43 40 32 23 16 10 9 18 19 21 22 6 177 212 222 227 222 212 202 181 153 149 146 138 131 123 118 114 109 107 104 101 100 101 100 98 87 56 176 187 204 219 217 210 203 176 133 119 119 122 128 130 127 122 114 108 104 103 104 104 100 95 83 66 156 169 186 197 199 201 196 162 107 89 100 114 126 132 131 125 117 111 107 107 108 105 97 89 78 64 147 161 177 175 171 181 181 146 96 87 105 120 128 132 129 122 115 113 112 112 108 102 92 84 76 64 134 148 172 175 163 165 167 141 110 110 124 128 129 129 124 117 114 114 115 112 106 97 89 84 78 68 120 130 157 172 165 159 158 145 137 140 139 133 129 124 117 113 112 114 112 108 100 94 90 87 80 73 120 120 135 152 152 150 158 162 162 157 144 134 125 116 111 111 111 110 105 99 94 92 92 89 82 75 129 125 125 132 137 153 173 180 174 159 143 131 119 111 111 111 107 102 95 91 90 91 91 88 82 72 137 133 128 133 144 164 183 186 171 154 141 128 117 113 113 109 102 94 88 87 86 87 86 83 78 67 144 137 131 139 156 167 176 177 165 153 143 131 123 120 114 104 96 89 87 87 85 84 81 80 77 65 150 142 134 141 158 163 165 169 166 159 149 140 134 125 111 100 93 89 87 86 84 83 81 82 79 66 158 149 140 140 156 165 167 170 170 166 159 153 143 125 107 98 93 90 88 85 84 84 84 88 84 70 162 153 146 143 156 170 173 171 168 168 168 162 146 124 107 100 95 90 87 85 85 87 89 94 91 74 157 151 148 152 162 173 172 160 155 163 169 161 144 122 108 102 96 90 88 88 88 92 95 101 96 77 151 148 150 157 162 172 162 130 126 148 159 152 136 116 105 100 94 91 92 94 94 98 101 104 97 81 148 149 147 148 147 161 146 99 102 131 143 133 116 104 99 97 95 96 99 103 104 108 108 105 95 82 146 150 143 130 120 135 124 91 97 112 117 108 100 97 98 98 99 101 105 110 113 114 110 103 91 76 141 146 139 122 105 107 104 94 94 95 97 98 100 102 101 101 106 111 115 119 117 114 107 98 87 74 134 135 130 120 106 99 98 95 91 88 94 103 107 105 104 107 115 121 122 121 116 110 102 94 85 74 134 130 124 118 112 106 104 100 92 88 96 107 107 104 109 118 124 128 126 120 112 103 98 93 85 75 138 133 124 117 116 114 112 108 98 91 96 104 105 109 119 126 129 130 125 117 105 96 93 91 85 75 138 132 120 114 117 120 121 119 112 104 102 106 110 119 127 129 130 129 122 111 99 91 89 88 83 74 140 132 116 112 120 127 130 126 121 118 116 117 123 126 125 124 126 126 117 104 94 87 84 83 79 71 143 134 117 112 123 135 138 128 121 124 129 131 134 132 124 120 121 119 108 95 88 84 82 80 77 70 141 130 112 109 120 137 141 121 108 121 136 140 137 129 118 113 109 103 92 84 80 80 78 77 76 67 112 124 103 95 111 135 137 107 87 111 137 142 134 119 108 103 96 87 76 69 67 71 70 70 68 42 121 154 163 169 165 157 149 129 112 117 121 119 111 100 94 90 84 82 82 81 81 83 83 80 72 50 129 133 148 160 158 153 147 123 97 95 99 103 106 106 101 93 82 76 77 81 85 86 84 78 69 61 115 123 136 145 146 146 141 113 78 72 80 92 104 108 104 92 78 73 76 84 88 87 81 73 64 58 111 120 128 128 127 132 129 101 69 65 77 94 107 108 100 85 73 72 79 87 88 83 75 67 61 58 108 117 126 124 120 123 121 98 76 72 85 102 108 104 91 75 70 75 84 88 84 77 69 65 62 59 98 107 122 125 121 122 121 106 91 89 101 109 107 95 79 70 72 80 86 84 77 71 68 67 64 62 90 94 108 119 119 121 123 117 109 110 113 110 98 82 71 71 76 82 81 75 70 67 68 69 66 63 90 89 97 109 115 123 130 129 124 121 114 101 84 72 71 76 79 78 72 66 65 66 67 68 66 64 93 91 96 107 118 129 137 137 131 122 108 90 76 73 77 79 76 70 64 62 63 65 66 65 64 62 96 92 96 108 124 132 137 138 131 120 104 87 79 81 81 77 70 63 61 62 63 65 64 62 61 60 100 94 93 104 124 130 130 133 129 120 105 92 88 86 80 72 65 62 62 63 64 64 63 62 61 60 107 99 92 96 116 126 125 129 130 122 111 104 99 89 78 69 65 63 64 64 64 63 63 63 63 62 110 102 94 92 107 121 124 129 131 128 123 120 111 94 78 69 66 66 65 64 63 63 64 67 68 66 105 100 96 96 104 116 122 123 125 127 130 129 118 97 78 69 68 67 66 64 63 64 67 73 73 70 97 96 98 101 107 116 111 96 101 118 129 127 114 91 74 68 67 67 65 65 65 68 74 79 76 71 94 95 97 98 103 113 95 63 73 103 117 109 91 74 67 67 67 67 66 67 70 76 81 82 76 68 95 95 93 88 87 97 82 54 61 82 90 78 67 63 64 66 67 68 70 74 79 84 84 81 72 65 97 96 91 83 74 77 72 59 60 65 67 63 64 67 68 69 70 73 77 83 86 87 83 78 70 64 98 96 91 84 73 69 68 65 64 63 65 68 72 72 72 72 75 80 85 88 88 86 80 75 69 64 98 96 92 86 75 70 70 69 66 64 68 73 74 72 72 74 79 85 88 88 85 81 76 73 69 65 99 97 92 85 77 73 73 72 68 65 68 72 72 72 73 76 81 87 88 84 78 73 72 71 68 64 99 95 87 81 78 77 78 77 73 68 69 71 71 73 75 79 83 88 87 82 74 68 67 66 64 61 99 92 82 79 79 82 84 82 78 73 73 74 74 76 78 80 85 88 86 80 72 65 61 60 59 57 99 94 84 82 83 86 90 88 83 80 79 79 80 83 83 83 86 88 84 76 69 63 59 57 55 53 102 96 88 86 88 91 94 88 82 84 88 88 88 88 84 82 82 81 76 69 65 61 58 56 54 52 82 97 89 87 89 94 95 86 79 83 91 94 92 88 83 80 78 75 68 63 61 58 57 55 53 38 0 0 0 0 0 0 0 0 0 0 0 0 0 0 0 0 0 0 0 0 0 0 0 0 0 0 0 0 0 0 0 0 0 0 0 0 0 0 0 0 0 0 0 0 0 0 0 0 0 0 0 0 0 0 0 0 0 0 0 0 0 0 0 0 0 0 0 0 0 0 0 0 0 0 0 0 0 0 0 0 0 0 0 0 0 0 0 0 0 0 0 0 0 0 0 0 0 0 0 0 0 0 0 0 0 0 0 0 0 0 0 0 0 0 0 0 0 0 0 0 0 0 0 0 0 0 0 0 0 0 0 0 0 0 0 0 0 0 0 0 0 0 0 0 0 0 0 0 0 0 0 0 0 0 0 0 0 0 0 0 0 0 0 0 0 0 0 0 0 0 0 0 0 0 0 0 0 0 0 0 0 0 0 0 0 0 0 0 0 0 0 0 0 0 0 0 0 0 0 0 0 0 0 0 0 0 0 0 0 0 0 0 0 0 0 0 0 0 0 0 0 0 0 0 0 0 0 0 0 0 0 0 0 0 0 0 0 0 0 0 0 0 0 0 0 0 0 0 0 0 0 0 0 0 0 0 0 0 0 0 0 0 0 0 0 0 0 0 0 0 0 0 0 0 0 0 0 0 0 0 0 0 0 0 0 0 0 0 0 0 0 0 0 0 0 0 0 0 0 0 0 0 0 0 0 0 0 0 0 0 0 0 0 0 0 0 0 0 0 0 0 0 0 0 0 0 0 0 0 0 0 0 0 0 0 0 0 0 0 0 0 0 0 0 0 0 0 0 0 0 0 0 0 0 0 0 0 0 0 0 0 0 0 0 0 0 0 0 0 0 0 0 0 0 0 0 0 0 0 0 0 0 0 0 0 0 0 0 0 0 0 0 0 0 0 0 0 0 0 0 0 0 0 0 0 0 0 0 0 0 0 0 0 0 0 0 0 0 0 0 0 0 0 0 0 0 0 0 0 0 0 0 0 0 0 0 0 0 0 0 0 0 0 0 0 0 0 0 0 0 0 0 0 0 0 0 0 0 0 0 0 0 0 0 0 0 0 0 0 0 0 0 0 0 0 0 0 0 0 0 0 0 0 0 0 0 0 0 0 0 0 0 0 0 0 0 0 0 0 0 0 0 0 0 0 0 0 0 0 0 0 0 0 0 0 0 0 0 0 0 0 0 0 0 0 0 0 0 0 0 0 0 0 0 0 0 0 0 0 0 0 0 0 0 0 0 0 0 0 0 0 0 0 0 0 0 0 0 0 0 0 0 0 0 0 0 0 0 0 0 0 0 0 0 0 0 0 0 0 0 0 0 0 0 0 0 0 0 0 0 0 0 0 0 0 0 0 0 0 0 0 0 0 0 0 0 0 0 0 0 0 0 0 0 0 0 0 0 0 0 0 0 0 0 0 0 0 0 0 0 0 0 0 0 0 0 0 0 0 0 0 0 0 0 0 0 0 0 0 0 0 0 0 0 0 0 0 0 0 0 0 0 0 0 0 0 0 0 0 0 0 0 0 0 0 0 
</DataArray>
<DataArray Name="HRRPUV" NumberOfComponents="1" type="UInt8" format="ascii">