<?xml version="1.0"?>
<VTKFile type="ImageData" version="1.0" byte_order="LittleEndian" header_type="UInt64">
<ImageData WholeExtent="25 50 0 25 1 1"
 Origin="15.0000 0.0000 0.0000" Spacing="0.6000 0.6000 0.6000">
<Piece Extent="25 50 0 25 1 1">
<PointData>
<DataArray Name="TEMPERATURE" NumberOfComponents="1" type="Float32" format="ascii">
26.6 29.8 31.7 30.1 25.9 23.1 22.6 22.9 22.6 23.3 26.4 30.4 32.9 29.9 24.4 22.4 23.2 23.6 22.8 22.5 22.9 23.3 23.1 22.6 21.9 21.3 26.7 28.8 31.1 30.5 26.9 24.4 24.3 25.0 24.5 24.3 26.2 29.3 31.3 30.6 28.7 27.1 26.0 24.9 23.8 23.4 23.6 24.0 24.0 23.6 22.6 21.7 27.1 26.9 29.5 31.1 29.4 26.9 25.9 26.3 25.8 24.9 25.6 27.4 28.8 30.0 31.4 30.8 28.2 26.2 25.3 24.7 24.4 24.5 24.8 24.6 23.2 22.1 30.6 29.0 30.7 32.6 31.3 28.6 26.8 26.6 26.1 24.8 24.7 26.0 27.4 28.6 29.9 29.9 28.2 27.3 26.7 25.7 24.7 24.3 24.6 24.6 23.6 22.8 35.7 33.0 32.7 32.4 29.9 28.6 28.5 28.4 27.5 25.6 24.7 25.2 26.9 28.6 29.3 28.9 28.4 28.7 27.7 25.9 24.8 24.4 24.4 24.4 24.0 23.5 40.0 36.9 36.0 33.7 29.9 30.5 32.0 30.5 28.2 26.6 26.1 26.4 27.7 29.4 29.5 28.3 28.0 28.8 28.1 26.8 25.6 25.0 24.7 24.5 24.0 23.5 44.6 43.5 41.3 35.4 34.0 41.8 44.9 35.9 28.0 26.4 27.1 27.8 28.8 30.4 30.4 29.1 28.4 28.7 28.3 27.4 26.5 26.2 25.9 25.0 23.8 22.8 47.0 47.7 42.9 36.9 45.3 62.0 65.1 49.9 32.6 25.8 26.7 28.1 29.5 31.2 31.2 29.9 28.9 28.5 28.0 27.6 27.7 28.3 28.3 27.1 24.6 22.8 48.4 45.4 40.7 43.2 59.4 75.9 79.1 68.2 46.9 29.9 26.7 28.2 29.9 31.4 31.5 30.6 29.3 28.5 28.1 28.7 29.7 30.4 30.2 28.9 26.0 23.7 53.8 43.6 37.3 47.1 63.7 76.4 82.0 78.4 61.9 40.0 28.5 27.7 28.9 30.4 31.0 30.5 29.4 28.6 28.6 29.7 30.8 31.2 30.6 29.7 27.2 24.8 62.6 50.5 40.2 47.2 60.2 70.2 78.4 79.0 68.7 51.7 36.1 29.1 27.7 28.5 29.3 29.1 28.2 28.2 29.2 30.5 30.8 30.2 29.7 29.7 27.7 25.3 66.0 58.3 49.2 49.8 55.8 63.6 75.0 77.3 68.8 58.3 46.2 35.1 28.7 27.2 27.4 27.1 26.4 27.1 28.7 29.5 29.1 28.0 27.5 28.1 26.7 24.8 59.9 58.3 54.9 56.0 57.9 62.6 74.7 77.3 68.9 59.0 50.6 40.6 31.3 27.5 27.0 26.2 25.5 26.0 26.9 27.2 26.9 26.4 26.1 26.9 26.0 24.3 52.1 53.1 54.2 65.4 70.6 69.1 73.7 72.5 66.0 56.9 49.5 41.4 33.2 29.6 29.0 27.8 26.2 25.4 25.3 25.2 25.2 25.1 25.2 26.4 25.8 23.9 54.2 56.5 55.4 73.5 81.3 72.3 66.2 59.8 56.7 53.0 48.3 41.6 34.9 32.3 31.9 30.4 27.9 25.6 24.4 24.0 24.1 24.4 24.7 26.2 25.9 24.2 68.4 71.3 66.7 76.9 77.6 64.0 54.0 48.1 47.1 48.2 47.9 43.2 37.1 34.3 33.7 32.2 29.1 26.2 24.3 23.7 23.8 24.3 24.7 26.1 26.0 24.5 76.7 74.8 72.1 72.6 65.8 53.4 44.8 41.9 41.1 43.9 46.5 44.1 39.1 35.6 33.9 31.9 28.9 26.1 24.4 23.8 24.1 24.7 25.2 26.5 26.1 24.4 68.7 63.7 61.7 61.5 60.2 52.6 46.2 44.1 41.0 42.0 44.6 44.1 39.8 35.3 32.3 30.1 27.8 25.6 24.4 24.2 24.5 25.3 26.0 27.2 26.1 24.0 70.0 61.8 58.3 60.7 69.9 66.2 56.5 53.2 48.2 43.6 43.2 43.7 40.2 34.7 30.6 28.5 26.9 25.3 24.5 24.4 24.8 25.7 26.3 27.1 25.6 23.3 97.9 96.2 90.6 90.5 95.6 85.9 68.7 64.8 58.0 46.8 43.9 43.0 40.4 35.1 30.3 27.9 26.4 25.2 24.5 24.6 24.9 25.5 25.9 26.2 24.5 22.3 123.5 140.4 132.9 124.1 117.5 104.2 88.0 83.1 70.7 52.0 44.5 41.0 38.9 35.2 31.4 28.6 26.4 25.1 24.7 25.0 25.1 25.2 25.2 25.1 23.4 21.6 113.7 144.2 143.1 130.5 123.9 116.2 105.9 96.3 78.1 56.9 45.7 40.2 36.2 33.6 31.7 29.2 26.7 25.3 25.1 25.3 25.3 25.0 24.7 24.5 22.9 21.2 92.8 115.2 119.2 113.5 111.0 101.9 94.1 84.5 67.9 54.3 46.4 40.7 35.6 33.1 30.8 28.4 26.5 25.4 25.1 25.3 25.3 24.9 24.7 24.6 22.8 21.0 77.5 80.0 81.4 86.1 84.5 74.4 72.4 66.9 54.1 47.3 44.0 39.5 36.0 34.0 30.5 27.6 26.0 25.2 24.8 25.0 24.9 24.6 24.6 24.4 22.6 20.9 59.9 56.6 56.7 68.0 69.3 63.3 68.8 64.5 48.9 43.0 42.1 38.2 35.9 34.6 31.1 28.0 26.2 25.2 24.6 24.6 24.7 24.5 24.4 24.2 22.3 20.8 43.0 47.6 49.0 60.9 68.0 69.0 73.2 63.2 45.9 41.1 39.9 37.1 36.0 35.1 32.0 28.7 26.7 25.6 24.9 24.9 25.1 24.9 24.9 24.5 22.5 20.9 
</DataArray>
</PointData>
</Piece>
</ImageData>
</VTKFile>
