<?xml version="1.0"?>
<VTKFile type="RectilinearGrid" version="1.0" byte_order="LittleEndian" header_type="UInt64">
<RectilinearGrid WholeExtent="25 50 25 50 0 15">
<Piece Extent="25 50 25 50 0 15">
<Coordinates>
<DataArray type="Float64" Name="Array X-Axis" format="ascii" RangeMin="15.0" RangeMax="30.0">
15.0 15.6 16.2 16.8 17.4 18.0 18.6 19.2 19.8 20.4 21.0 21.6 22.2 22.8 23.4 24.0 24.6 25.2 25.8 26.4 27.0 27.6 28.2 28.8 29.4 30.0 
</DataArray>
<DataArray type="Float64" Name="Array Y-Axis" format="ascii" RangeMin="15.0" RangeMax="30.0">
15.0 15.6 16.2 16.8 17.4 18.0 18.6 19.2 19.8 20.4 21.0 21.6 22.2 22.8 23.4 24.0 24.6 25.2 25.8 26.4 27.0 27.6 28.2 28.8 29.4 30.0 
</DataArray>
<DataArray type="Float64" Name="Array Z-Axis" format="ascii" RangeMin="0.0" RangeMax="9.0">
0.0 0.6 1.2 1.8 2.4 3.0 3.6 4.2 4.8 5.4 6.0 6.6 7.2 7.8 8.4 9.0 
</DataArray>
</Coordinates>
<PointData>
<DataArray Name="SOOT DENSITY" NumberOfComponents="1" type="UInt8" format="ascii">
0 0 0 0 1 1 1 0 0 0 0 0 0 0 0 0 0 0 0 0 0 0 0 0 0 0 0 0 0 0 0 0 0 0 0 0 0 0 0 0 0 0 0 0 0 0 0 0 0 0 0 0 0 0 0 0 0 0 0 0 0 0 0 0 0 0 0 0 0 0 0 0 0 0 0 0 0 0 0 0 0 0 0 0 0 0 0 0 0 0 0 0 0 0 0 0 0 0 0 0 0 0 0 0 0 0 0 0 0 0 0 0 0 0 0 0 0 0 0 0 0 0 0 0 0 0 0 0 0 0 0 0 0 0 0 0 0 0 0 0 0 0 0 0 0 0 0 0 0 0 0 0 0 0 0 0 0 0 0 0 0 0 0 0 0 0 0 0 0 0 0 0 0 0 0 0 0 0 0 0 0 0 0 0 0 0 0 0 0 0 0 0 0 0 0 0 0 0 0 0 0 0 0 0 0 0 0 0 0 0 0 0 0 0 0 0 0 0 0 0 0 0 0 0 0 0 0 0 0 0 0 0 0 0 0 0 0 0 0 0 0 0 0 0 0 0 0 0 0 0 0 0 0 0 0 0 0 0 0 0 0 0 0 0 0 0 0 0 0 0 0 0 0 0 0 0 0 0 0 0 0 0 0 0 0 0 0 0 0 0 0 0 0 0 0 0 0 0 0 0 0 0 0 0 0 0 0 0 0 0 0 0 0 0 0 0 0 0 0 0 0 0 0 0 0 0 0 0 0 0 0 0 0 0 0 0 0 0 0 0 0 0 0 0 0 0 0 0 0 0 0 0 0 0 0 0 0 0 0 0 0 0 0 0 0 0 0 0 0 0 0 0 0 0 0 0 0 0 0 0 0 0 0 0 0 0 0 0 0 0 0 0 0 0 0 0 0 0 0 0 0 0 0 0 0 0 0 0 0 0 0 0 0 0 0 0 0 0 0 0 0 0 0 0 0 0 0 0 0 0 0 0 0 0 0 0 0 0 0 0 0 0 0 0 0 0 0 0 0 0 0 0 0 0 0 0 0 0 0 0 0 0 0 0 0 0 0 0 0 0 0 0 0 0 0 0 0 0 0 0 0 0 0 0 0 0 0 0 0 0 0 0 0 0 0 0 0 0 0 0 0 0 0 0 0 0 0 0 0 0 0 0 0 0 0 0 0 0 0 0 0 0 0 0 0 0 0 0 0 0 0 0 0 0 0 0 0 0 0 0 0 0 0 0 0 0 0 0 0 0 0 0 0 0 0 0 0 0 0 0 0 0 0 0 0 0 0 0 0 0 0 0 0 0 0 0 0 0 0 0 0 0 0 0 0 0 0 0 0 0 0 0 0 0 0 0 0 0 0 0 0 0 0 0 0 0 0 0 0 0 0 0 0 0 0 0 0 0 0 0 0 0 0 0 0 0 0 0 0 0 0 0 0 0 0 0 0 0 0 0 0 0 0 0 0 0 0 0 0 0 0 0 0 0 0 0 0 0 0 0 0 0 0 0 0 0 0 0 0 0 0 0 0 0 0 0 0 0 0 1 3 4 5 4 2 0 0 0 0 0 0 0 0 0 0 0 0 0 0 0 0 0 0 0 0 0 0 0 0 0 0 0 0 0 0 0 0 0 0 0 0 0 0 0 0 0 0 0 0 0 0 0 0 0 0 0 0 0 0 0 0 0 0 0 0 0 0 0 0 0 0 0 0 0 0 0 0 0 0 0 0 0 0 0 0 0 0 0 0 0 0 0 0 0 0 0 0 0 0 0 0 0 0 0 0 0 0 0 0 0 0 0 0 0 0 0 0 0 0 0 0 0 0 0 0 0 0 0 0 0 0 0 0 0 0 0 0 0 0 0 0 0 0 0 0 0 0 0 0 0 0 0 0 0 0 0 0 0 0 0 0 0 0 0 0 0 0 0 0 0 0 0 0 0 0 0 0 0 0 0 0 0 0 0 0 0 0 0 0 0 0 0 0 0 0 0 0 0 0 0 0 0 0 0 0 0 0 0 0 0 0 0 0 0 0 0 0 0 0 0 0 0 0 0 0 0 0 0 0 0 0 0 0 0 0 0 0 0 0 0 0 0 0 0 0 0 0 0 0 0 0 0 0 0 0 0 0 0 0 0 0 0 0 0 0 0 0 0 0 0 0 0 0 0 0 0 0 0 0 0 0 0 0 0 0 0 0 0 0 0 0 0 0 0 0 0 0 0 0 0 0 0 0 0 0 0 0 0 0 0 0 0 0 0 0 0 0 0 0 0 0 0 0 0 0 0 0 0 0 0 0 0 0 0 0 0 0 0 0 0 0 0 0 0 0 0 0 0 0 0 0 0 0 0 0 0 0 0 0 0 0 0 0 0 0 0 0 0 0 0 0 0 0 0 0 0 0 0 0 0 0 0 0 0 0 0 0 0 0 0 0 0 0 0 0 0 0 0 0 0 0 0 0 0 0 0 0 0 0 0 0 0 0 0 0 0 0 0 0 0 0 0 0 0 0 0 0 0 0 0 0 0 0 0 0 0 0 0 0 0 0 0 0 0 0 0 0 0 0 0 0 0 0 0 0 0 0 0 0 0 0 0 0 0 0 0 0 0 0 0 0 0 0 0 0 0 0 0 0 0 0 0 0 0 0 0 0 0 0 0 0 0 0 0 0 0 0 0 0 0 0 0 0 0 0 0 0 0 0 0 0 0 0 0 0 0 0 0 0 0 0 0 0 0 0 0 0 0 0 0 0 0 0 0 0 0 0 0 0 0 0 0 0 0 0 0 0 0 0 0 0 0 0 0 0 0 0 0 0 0 0 0 0 0 0 0 0 0 0 0 0 0 0 0 0 0 0 0 0 0 0 0 0 0 0 0 0 0 0 0 0 0 0 0 0 0 0 0 0 0 0 0 0 0 0 0 0 0 0 0 0 0 0 0 0 0 0 0 0 0 0 0 0 0 0 0 0 0 0 0 0 0 0 0 0 0 0 0 0 0 0 0 0 0 0 0 0 0 0 0 0 0 0 0 0 0 0 0 0 0 0 0 0 0 0 0 0 0 0 0 0 0 0 0 1 5 10 11 13 10 3 0 0 0 0 0 0 0 0 0 0 0 0 0 0 0 0 0 0 0 0 0 1 1 0 0 0 0 0 0 0 0 0 0 0 0 0 0 0 0 0 0 0 0 0 0 0 0 0 0 0 0 0 0 0 0 0 0 0 0 0 0 0 0 0 0 0 0 0 0 0 0 0 0 0 0 0 0 0 0 0 0 0 0 0 0 0 0 0 0 0 0 0 0 0 0 0 0 0 0 0 0 0 0 0 0 0 0 0 0 0 0 0 0 0 0 0 0 0 0 0 0 0 0 0 0 0 0 0 0 0 0 0 0 0 0 0 0 0 0 0 0 0 0 0 0 0 0 0 0 0 0 0 0 0 0 0 0 0 0 0 0 0 0 0 0 0 0 0 0 0 0 0 0 0 0 0 0 0 0 0 0 0 0 0 0 0 0 0 0 0 0 0 0 0 0 0 0 0 0 0 0 0 0 0 0 0 0 0 0 0 0 0 0 0 0 0 0 0 0 0 0 0 0 0 0 0 0 0 0 0 0 0 0 0 0 0 0 0 0 0 0 0 0 0 0 0 0 0 0 0 0 0 0 0 0 0 0 0 0 0 0 0 0 0 0 0 0 0 0 0 0 0 0 0 0 0 0 0 0 0 0 0 0 0 0 0 0 0 0 0 0 0 0 0 0 0 0 0 0 0 0 0 0 0 0 0 0 0 0 0 0 0 0 0 0 0 0 0 0 0 0 0 0 0 0 0 0 0 0 0 0 0 0 0 0 0 0 0 0 0 0 0 0 0 0 0 0 0 0 0 0 0 0 0 0 0 0 0 0 0 0 0 0 0 0 0 0 0 0 0 0 0 0 0 0 0 0 0 0 0 0 0 0 0 0 0 0 0 0 0 0 0 0 0 0 0 0 0 0 0 0 0 0 0 0 0 0 0 0 0 0 0 0 0 0 0 0 0 0 0 0 0 0 0 0 0 0 0 0 0 0 0 0 0 0 0 0 0 0 0 0 0 0 0 0 0 0 0 0 0 0 0 0 0 0 0 0 0 0 0 0 0 0 0 0 0 0 0 0 0 0 0 0 0 0 0 0 0 0 0 0 0 0 0 0 0 0 0 0 0 0 0 0 0 0 0 0 0 0 0 0 0 0 0 0 0 0 0 0 0 0 0 0 0 0 0 0 0 0 0 0 0 0 0 0 0 0 0 0 0 0 0 0 0 0 0 0 0 0 0 0 0 0 0 0 0 0 0 0 0 0 0 0 0 0 0 0 0 0 0 0 0 0 0 0 0 0 0 0 0 0 0 0 0 0 0 0 0 0 0 0 0 0 0 0 0 0 0 0 0 0 0 0 0 0 0 0 0 0 0 0 0 0 0 0 0 0 0 0 0 0 0 0 0 0 0 0 0 0 0 0 0 0 0 0 0 0 0 0 0 0 0 0 0 0 0 0 0 0 0 0 0 0 0 0 0 0 0 0 0 0 0 0 0 0 0 0 0 0 0 0 0 0 0 0 0 0 0 1 4 15 21 22 26 16 3 0 0 0 0 0 0 0 0 0 0 0 0 0 0 0 0 0 0 0 0 1 2 2 1 0 0 0 0 0 0 0 0 0 0 0 0 0 0 0 0 0 0 0 0 0 0 0 0 0 0 0 0 0 0 0 0 0 0 0 0 0 0 0 0 0 0 0 0 0 0 0 0 0 0 0 0 0 0 0 0 0 0 0 0 0 0 0 0 0 0 0 0 0 0 0 0 0 0 0 0 0 0 0 0 0 0 0 0 0 0 0 0 0 0 0 0 0 0 0 0 0 0 0 0 0 0 0 0 0 0 0 0 0 0 0 0 0 0 0 0 0 0 0 0 0 0 0 0 0 0 0 0 0 0 0 0 0 0 0 0 0 0 0 0 0 0 0 0 0 0 0 0 0 0 0 0 0 0 0 0 0 0 0 0 0 0 0 0 0 0 0 0 0 0 0 0 0 0 0 0 0 0 0 0 0 0 0 0 0 0 0 0 0 0 0 0 0 0 0 0 0 0 0 0 0 0 0 0 0 0 0 0 0 0 0 0 0 0 0 0 0 0 0 0 0 0 0 0 0 0 0 0 0 0 0 0 0 0 0 0 0 0 0 0 0 0 0 0 0 0 0 0 0 0 0 0 0 0 0 0 0 0 0 0 0 0 0 0 0 0 0 0 0 0 0 0 0 0 0 0 0 0 0 0 0 0 0 0 0 0 0 0 0 0 0 0 0 0 0 0 0 0 0 0 0 0 0 0 0 0 0 0 0 0 0 0 0 0 0 0 0 0 0 0 0 0 0 0 0 0 0 0 0 0 0 0 0 0 0 0 0 0 0 0 0 0 0 0 0 0 0 0 0 0 0 0 0 0 0 0 0 0 0 0 0 0 0 0 0 0 0 0 0 0 0 0 0 0 0 0 0 0 0 0 0 0 0 0 0 0 0 0 0 0 0 0 0 0 0 0 0 0 0 0 0 0 0 0 0 0 0 0 0 0 0 0 0 0 0 0 0 0 0 0 0 0 0 0 0 0 0 0 0 0 0 0 0 0 0 0 0 0 0 0 0 0 0 0 0 0 0 0 0 0 0 0 0 0 0 0 0 0 0 0 0 0 0 0 0 0 0 0 0 0 0 0 0 0 0 0 0 0 0 0 0 0 0 0 0 0 0 0 0 0 0 0 0 0 0 0 0 0 0 0 0 0 0 0 0 0 0 0 0 0 0 0 0 0 0 0 0 0 0 0 0 0 0 0 0 0 0 0 0 0 0 0 0 0 0 0 0 0 0 0 0 0 0 0 0 0 0 0 0 0 0 0 0 0 0 0 0 0 0 0 0 0 0 0 0 0 0 0 0 0 0 0 0 0 0 0 0 0 0 0 0 0 0 0 0 0 0 0 0 0 0 0 0 0 0 0 0 0 0 0 0 0 0 0 0 0 0 0 0 0 0 0 0 0 0 0 0 0 0 0 0 0 0 0 0 0 0 0 0 0 0 0 0 0 0 0 0 0 0 0 0 0 0 1 15 29 34 34 35 36 27 12 0 0 0 0 0 0 0 0 0 0 0 0 0 0 0 0 0 0 2 4 3 3 4 4 1 0 0 0 0 0 0 0 0 0 0 0 0 0 0 0 0 0 0 0 0 0 0 0 0 0 0 0 0 0 0 0 0 0 0 0 0 0 0 0 0 0 0 0 0 0 0 0 0 0 0 0 0 0 0 0 0 0 0 0 0 0 0 0 0 0 0 0 0 0 0 0 0 0 0 0 0 0 0 0 0 0 0 0 0 0 0 0 0 0 0 0 0 0 0 0 0 0 0 0 0 0 0 0 0 0 0 0 0 0 0 0 0 0 0 0 0 0 0 0 0 0 0 0 0 0 0 0 0 0 0 0 0 0 0 0 0 0 0 0 0 0 0 0 0 0 0 0 0 0 0 0 0 0 0 0 0 0 0 0 0 0 0 0 0 0 0 0 0 0 0 0 0 0 0 0 0 0 0 0 0 0 0 0 0 0 0 0 0 0 0 0 0 0 0 0 0 0 0 0 0 0 0 0 0 0 0 0 0 0 0 0 0 0 0 0 0 0 0 0 0 0 0 0 0 0 0 0 0 0 0 0 0 0 0 0 0 0 0 0 0 0 0 0 0 0 0 0 0 0 0 0 0 0 0 0 0 0 0 0 0 0 0 0 0 0 0 0 0 0 0 0 0 0 0 0 0 0 0 0 0 0 0 0 0 0 0 0 0 0 0 0 0 0 0 0 0 0 0 0 0 0 0 0 0 0 0 0 0 0 0 0 0 0 0 0 0 0 0 0 0 0 0 0 0 0 0 0 0 0 0 0 0 0 0 0 0 0 0 0 0 0 0 0 0 0 0 0 0 0 0 0 0 0 0 0 0 0 0 0 0 0 0 0 0 0 0 0 0 0 0 0 0 0 0 0 0 0 0 0 0 0 0 0 0 0 0 0 0 0 0 0 0 0 0 0 0 0 0 0 0 0 0 0 0 0 0 0 0 0 0 0 0 0 0 0 0 0 0 0 0 0 0 0 0 0 0 0 0 0 0 0 0 0 0 0 0 0 0 0 0 0 0 0 0 0 0 0 0 0 0 0 0 0 0 0 0 0 0 0 0 0 0 0 0 0 0 0 0 0 0 0 0 0 0 0 0 0 0 0 0 0 0 0 0 0 0 0 0 0 0 0 0 0 0 0 0 0 0 0 0 0 0 0 0 0 0 0 0 0 0 0 0 0 0 0 0 0 0 0 0 0 0 0 0 0 0 0 0 0 0 0 0 0 0 0 0 0 0 0 0 0 0 0 0 0 0 0 0 0 0 0 0 0 0 0 0 0 0 0 0 0 0 0 0 0 0 0 0 0 0 0 0 0 0 0 0 0 0 0 0 0 0 0 0 0 0 0 0 0 0 0 0 0 0 0 0 0 0 0 0 0 0 0 0 0 0 0 0 0 0 0 0 0 0 0 0 0 0 0 0 0 0 0 0 0 0 0 0 0 0 0 0 0 0 0 0 0 0 0 0 0 0 8 36 53 56 52 43 37 29 16 0 0 0 0 0 0 0 0 0 0 0 0 0 0 0 0 0 1 5 8 6 5 6 6 2 0 0 0 0 0 0 0 0 0 0 0 0 0 0 0 0 0 0 0 0 0 0 0 0 0 0 0 0 0 0 0 0 0 0 0 0 0 0 0 0 0 0 0 0 0 0 0 0 0 0 0 0 0 0 0 0 0 0 0 0 0 0 0 0 0 0 0 0 0 0 0 0 0 0 0 0 0 0 0 0 0 0 0 0 0 0 0 0 0 0 0 0 0 0 0 0 0 0 0 0 0 0 0 0 0 0 0 0 0 0 0 0 0 0 0 0 0 0 0 0 0 0 0 0 0 0 0 0 0 0 0 0 0 0 0 0 0 0 0 0 0 0 0 0 0 0 0 0 0 0 0 0 0 0 0 0 0 0 0 0 0 0 0 0 0 0 0 0 0 0 0 0 0 0 0 0 0 0 0 0 0 0 0 0 0 0 0 0 0 0 0 0 0 0 0 0 0 0 0 0 0 0 0 0 0 0 0 0 0 0 0 0 0 0 0 0 0 0 0 0 0 0 0 0 0 0 0 0 0 0 0 0 0 0 0 0 0 0 0 0 0 0 0 0 0 0 0 0 0 0 0 0 0 0 0 0 0 0 0 0 0 0 0 0 0 0 0 0 0 0 0 0 0 0 0 0 0 0 0 0 0 0 0 0 0 0 0 0 0 0 0 0 0 0 0 0 0 0 0 0 0 0 0 0 0 0 0 0 0 0 0 0 0 0 0 0 0 0 0 0 0 0 0 0 0 0 0 0 0 0 0 0 0 0 0 0 0 0 0 0 0 0 0 0 0 0 0 0 0 0 0 0 0 0 0 0 0 0 0 0 0 0 0 0 0 0 0 0 0 0 0 0 0 0 0 0 0 0 0 0 0 0 0 0 0 0 0 0 0 0 0 0 0 0 0 0 0 0 0 0 0 0 0 0 0 0 0 0 0 0 0 0 0 0 0 0 0 0 0 0 0 0 0 0 0 0 0 0 0 0 0 0 0 0 0 0 0 0 0 0 0 0 0 0 0 0 0 0 0 0 0 0 0 0 0 0 0 0 0 0 0 0 0 0 0 0 0 0 0 0 0 0 0 0 0 0 0 0 0 0 0 0 0 0 0 0 0 0 0 0 0 0 0 0 0 0 0 0 0 0 0 0 0 0 0 0 0 0 0 0 0 0 0 0 0 0 0 0 0 0 0 0 0 0 0 0 0 0 0 0 0 0 0 0 0 0 0 0 0 0 0 0 0 0 0 0 0 0 0 0 0 0 0 0 0 0 0 0 0 0 0 0 0 0 0 0 0 0 0 0 0 0 0 0 0 0 0 0 0 0 0 0 0 0 0 0 0 0 0 0 0 0 0 0 0 0 0 0 0 0 0 0 0 0 0 0 0 0 0 0 0 0 0 0 0 0 0 0 0 0 0 0 0 0 0 0 0 0 0 0 0 0 0 0 0 0 0 0 0 0 0 0 39 94 96 74 58 41 34 21 9 0 0 0 0 0 0 0 0 0 0 0 0 0 0 0 0 0 3 16 18 9 7 6 7 5 1 0 0 0 0 0 0 0 0 0 0 0 0 0 0 0 0 0 0 1 1 1 0 0 1 0 0 0 0 0 0 0 0 0 0 0 0 0 0 0 0 0 0 0 0 0 0 0 0 0 0 0 0 0 0 0 0 0 0 0 0 0 0 0 0 0 0 0 0 0 0 0 0 0 0 0 0 0 0 0 0 0 0 0 0 0 0 0 0 0 0 0 0 0 0 0 0 0 0 0 0 0 0 0 0 0 0 0 0 0 0 0 0 0 0 0 0 0 0 0 0 0 0 0 0 0 0 0 0 0 0 0 0 0 0 0 0 0 0 0 0 0 0 0 0 0 0 0 0 0 0 0 0 0 0 0 0 0 0 0 0 0 0 0 0 0 0 0 0 0 0 0 0 0 0 0 0 0 0 0 0 0 0 0 0 0 0 0 0 0 0 0 0 0 0 0 0 0 0 0 0 0 0 0 0 0 0 0 0 0 0 0 0 0 0 0 0 0 0 0 0 0 0 0 0 0 0 0 0 0 0 0 0 0 0 0 0 0 0 0 0 0 0 0 0 0 0 0 0 0 0 0 0 0 0 0 0 0 0 0 0 0 0 0 0 0 0 0 0 0 0 0 0 0 0 0 0 0 0 0 0 0 0 0 0 0 0 0 0 0 0 0 0 0 0 0 0 0 0 0 0 0 0 0 0 0 0 0 0 0 0 0 0 0 0 0 0 0 0 0 0 0 0 0 0 0 0 0 0 0 0 0 0 0 0 0 0 0 0 0 0 0 0 0 0 0 0 0 0 0 0 0 0 0 0 0 0 0 0 0 0 0 0 0 0 0 0 0 0 0 0 0 0 0 0 0 0 0 0 0 0 0 0 0 0 0 0 0 0 0 0 0 0 0 0 0 0 0 0 0 0 0 0 0 0 0 0 0 0 0 0 0 0 0 0 0 0 0 0 0 0 0 0 0 0 0 0 0 0 0 0 0 0 0 0 0 0 0 0 0 0 0 0 0 0 0 0 0 0 0 0 0 0 0 0 0 0 0 0 0 0 0 0 0 0 0 0 0 0 0 0 0 0 0 0 0 0 0 0 0 0 0 0 0 0 0 0 0 0 0 0 0 0 0 0 0 0 0 0 0 0 0 0 0 0 0 0 0 0 0 0 0 0 0 0 0 0 0 0 0 0 0 0 0 0 0 0 0 0 0 0 0 0 0 0 0 0 0 0 0 0 0 0 0 0 0 0 0 0 0 0 0 0 0 0 0 0 0 0 0 0 0 0 0 0 0 0 0 0 0 0 0 0 0 0 0 0 0 0 0 0 0 0 0 0 0 0 0 0 0 0 0 0 0 0 0 0 0 0 0 0 0 0 0 0 0 0 0 0 0 0 0 0 0 0 0 0 0 0 0 0 0 0 0 0 0 0 0 0 0 0 0 0 0 0 0 0 0 0 0 0 0 52 135 139 83 46 29 30 20 6 1 0 0 0 0 0 0 0 0 0 0 0 0 0 0 0 0 6 27 30 12 6 4 7 6 2 0 0 0 0 0 0 0 0 0 0 0 0 0 0 0 0 0 0 2 2 1 1 0 1 1 0 0 0 0 0 0 0 0 0 0 0 0 0 0 0 0 0 0 0 0 0 0 0 0 0 0 0 0 0 0 0 0 0 0 0 0 0 0 0 0 0 0 0 0 0 0 0 0 0 0 0 0 0 0 0 0 0 0 0 0 0 0 0 0 0 0 0 0 0 0 0 0 0 0 0 0 0 0 0 0 0 0 0 0 0 0 0 0 0 0 0 0 0 0 0 0 0 0 0 0 0 0 0 0 0 0 0 0 0 0 0 0 0 0 0 0 0 0 0 0 0 0 0 0 0 0 0 0 0 0 0 0 0 0 0 0 0 0 0 0 0 0 0 0 0 0 0 0 0 0 0 0 0 0 0 0 0 0 0 0 0 0 0 0 0 0 0 0 0 0 0 0 0 0 0 0 0 0 0 0 0 0 0 0 0 0 0 0 0 0 0 0 0 0 0 0 0 0 0 0 0 0 0 0 0 0 0 0 0 0 0 0 0 0 0 0 0 0 0 0 0 0 0 0 0 0 0 0 0 0 0 0 0 0 0 0 0 0 0 0 0 0 0 0 0 0 0 0 0 0 0 0 0 0 0 0 0 0 0 0 0 0 0 0 0 0 0 0 0 0 0 0 0 0 0 0 0 0 0 0 0 0 0 0 0 0 0 0 0 0 0 0 0 0 0 0 0 0 0 0 0 0 0 0 0 0 0 0 0 0 0 0 0 0 0 0 0 0 0 0 0 0 0 0 0 0 0 0 0 0 0 0 0 0 0 0 0 0 0 0 0 0 0 0 0 0 0 0 0 0 0 0 0 0 0 0 0 0 0 0 0 0 0 0 0 0 0 0 0 0 0 0 0 0 0 0 0 0 0 0 0 0 0 0 0 0 0 0 0 0 0 0 0 0 0 0 0 0 0 0 0 0 0 0 0 0 0 0 0 0 0 0 0 0 0 0 0 0 0 0 0 0 0 0 0 0 0 0 0 0 0 0 0 0 0 0 0 0 0 0 0 0 0 0 0 0 0 0 0 0 0 0 0 0 0 0 0 0 0 0 0 0 0 0 0 0 0 0 0 0 0 0 0 0 0 0 0 0 0 0 0 0 0 0 0 0 0 0 0 0 0 0 0 0 0 0 0 0 0 0 0 0 0 0 0 0 0 0 0 0 0 0 0 0 0 0 0 0 0 0 0 0 0 0 0 0 0 0 0 0 0 0 0 0 0 0 0 0 0 0 0 0 0 0 0 0 0 0 0 0 0 0 0 0 0 0 0 0 0 0 0 0 0 0 0 0 0 0 0 0 0 0 0 0 0 0 0 0 0 0 0 0 0 0 0 0 0 0 0 0 0 0 0 0 0 0 0 0 0 0 0 0 0 0 0 0 0 0 0 0 0 0 0 0 0 0 40 123 131 75 40 25 33 26 7 2 0 0 0 0 0 0 0 0 0 0 0 0 0 0 0 0 6 22 26 13 5 3 5 5 1 0 0 0 0 0 0 0 0 0 0 0 0 0 0 0 0 0 1 3 3 2 1 0 1 1 0 0 0 0 0 0 0 0 0 0 0 0 0 0 0 0 0 0 0 0 0 0 0 0 0 0 0 0 0 0 0 0 0 0 0 0 0 0 0 0 0 0 0 0 0 0 0 0 0 0 0 0 0 0 0 0 0 0 0 0 0 0 0 0 0 0 0 0 0 0 0 0 0 0 0 0 0 0 0 0 0 0 0 0 0 0 0 0 0 0 0 0 0 0 0 0 0 0 0 0 0 0 0 0 0 0 0 0 0 0 0 0 0 0 0 0 0 0 0 0 0 0 0 0 0 0 0 0 0 0 0 0 0 0 0 0 0 0 0 0 0 0 0 0 0 0 0 0 0 0 0 0 0 0 0 0 0 0 0 0 0 0 0 0 0 0 0 0 0 0 0 0 0 0 0 0 0 0 0 0 0 0 0 0 0 0 0 0 0 0 0 0 0 0 0 0 0 0 0 0 0 0 0 0 0 0 0 0 0 0 0 0 0 0 0 0 0 0 0 0 0 0 0 0 0 0 0 0 0 0 0 0 0 0 0 0 0 0 0 0 0 0 0 0 0 0 0 0 0 0 0 0 0 0 0 0 0 0 0 0 0 0 0 0 0 0 0 0 0 0 0 0 0 0 0 0 0 0 0 0 0 0 0 0 0 0 0 0 0 0 0 0 0 0 0 0 0 0 0 0 0 0 0 0 0 0 0 0 0 0 0 0 0 0 0 0 0 0 0 0 0 0 0 0 0 0 0 0 0 0 0 0 0 0 0 0 0 0 0 0 0 0 0 0 0 0 0 0 0 0 0 0 0 0 0 0 0 0 0 0 0 0 0 0 0 0 0 0 0 0 0 0 0 0 0 0 0 0 0 0 0 0 0 0 0 0 0 0 0 0 0 0 0 0 0 0 0 0 0 0 0 0 0 0 0 0 0 0 0 0 0 0 0 0 0 0 0 0 0 0 0 0 0 0 0 0 0 0 0 0 0 0 0 0 0 0 0 0 0 0 0 0 0 0 0 0 0 0 0 0 0 0 0 0 0 0 0 0 0 0 0 0 0 0 0 0 0 0 0 0 0 0 0 0 0 0 0 0 0 0 0 0 0 0 0 0 0 0 0 0 0 0 0 0 0 0 0 0 0 0 0 0 0 0 0 0 0 0 0 0 0 0 0 0 0 0 0 0 0 0 0 0 0 0 0 0 0 0 0 0 0 0 0 0 0 0 0 0 0 0 0 0 0 0 0 0 0 0 0 0 0 0 0 0 0 0 0 0 0 0 0 0 0 0 0 0 0 0 0 0 0 0 0 0 0 0 0 0 0 0 0 0 0 0 0 0 0 0 0 0 0 0 0 0 0 0 0 0 0 0 0 0 0 0 0 0 0 0 0 0 0 0 0 0 0 0 31 78 81 57 45 35 46 37 14 10 7 4 2 0 0 0 0 0 0 0 0 0 0 0 0 0 9 18 20 13 6 4 6 5 4 4 3 1 1 0 0 0 0 0 0 0 0 0 0 0 0 0 4 7 8 4 1 1 1 1 1 1 0 0 0 0 0 0 0 0 0 0 0 0 0 0 0 0 1 3 3 1 1 0 0 0 0 0 0 0 0 0 0 0 0 0 0 0 0 0 0 0 0 0 1 1 1 1 1 1 0 0 0 0 0 0 0 0 0 0 0 0 0 0 0 0 0 0 0 0 1 1 0 0 0 0 0 0 0 0 0 0 0 0 0 0 0 0 0 0 0 0 0 0 0 0 1 1 0 0 0 0 0 0 0 0 0 0 0 0 0 0 0 0 0 0 0 0 0 0 0 0 1 1 0 0 0 0 0 0 0 0 0 0 0 0 0 0 0 0 0 0 0 0 0 0 0 0 1 1 0 0 0 0 0 0 0 0 0 0 0 0 0 0 0 0 0 0 0 0 0 0 0 0 1 1 1 0 0 0 0 0 0 0 0 0 0 0 0 0 0 0 0 0 0 0 0 0 0 0 1 1 1 1 0 0 0 0 0 0 0 0 0 0 0 0 0 0 0 0 0 0 0 0 0 0 2 1 1 1 1 0 0 0 0 0 0 0 0 0 0 0 0 0 0 0 0 0 0 0 0 0 3 2 1 1 0 0 1 1 0 0 0 0 0 0 0 0 0 0 0 0 0 0 0 0 0 0 4 4 2 1 1 0 1 1 0 0 0 0 0 0 0 0 0 0 0 0 0 0 0 0 0 0 5 5 2 1 1 0 1 1 0 0 0 0 0 0 0 0 0 0 0 0 0 0 0 0 0 0 5 5 2 1 0 0 0 0 0 0 0 0 0 0 0 0 0 0 0 0 0 0 0 0 0 0 5 5 2 1 0 0 0 0 0 0 0 0 0 0 0 0 0 0 0 0 0 0 0 0 0 0 3 3 1 0 0 0 0 0 0 0 0 0 0 0 0 0 0 0 0 0 0 0 0 0 0 0 1 1 1 0 0 0 0 0 0 0 0 0 0 0 0 0 0 0 0 0 0 0 0 0 0 0 1 1 0 0 0 0 0 0 0 0 0 0 0 0 0 0 0 0 0 0 0 0 0 0 0 0 1 1 0 0 0 0 0 0 0 0 0 0 0 0 0 0 0 0 0 0 0 0 0 0 0 0 0 0 0 0 0 0 0 0 0 0 0 0 0 0 0 0 0 0 0 0 0 0 0 0 0 0 0 0 0 0 0 0 0 0 0 0 0 0 0 0 0 0 0 0 0 0 0 0 0 0 0 0 0 0 0 0 0 0 0 0 0 0 0 0 0 0 0 0 0 0 0 0 0 0 0 0 0 0 0 0 0 0 0 0 0 0 0 0 0 0 0 0 0 0 0 0 0 0 0 0 0 0 0 0 0 0 0 0 0 0 0 0 0 0 0 0 0 0 0 0 0 0 0 0 0 0 0 0 0 0 31 49 51 54 59 56 55 42 24 20 14 9 5 3 2 3 3 2 1 0 0 0 0 0 0 0 32 32 37 32 31 30 17 10 9 9 7 5 5 4 4 5 5 3 1 0 0 0 0 0 0 0 26 27 32 23 14 12 7 4 4 4 4 6 6 5 4 5 5 3 1 0 0 0 0 1 0 0 11 13 16 12 7 6 6 7 6 5 5 7 7 6 4 3 2 2 1 0 0 0 1 1 0 0 4 5 5 5 6 7 8 10 10 6 5 6 5 4 3 1 1 1 0 0 0 0 1 1 0 0 4 4 4 4 5 8 10 12 11 6 4 4 3 2 2 1 1 0 0 0 0 1 1 1 0 0 4 4 4 4 6 9 11 11 8 5 4 3 2 2 2 1 1 0 0 0 0 0 1 0 0 0 4 4 4 4 6 8 9 7 6 5 4 3 2 1 1 1 1 0 1 1 1 0 1 0 0 0 4 4 4 4 5 6 6 4 4 5 4 3 2 1 1 1 1 1 1 1 1 1 1 0 0 0 5 5 5 5 6 5 4 3 3 4 3 2 2 1 1 2 2 1 1 1 1 1 1 0 0 0 7 6 7 7 7 6 4 3 3 3 3 3 2 1 1 2 2 1 1 1 1 1 0 0 0 0 11 9 9 9 8 7 6 6 5 3 3 3 3 2 2 2 2 2 1 1 1 0 0 0 0 0 15 13 14 12 10 8 11 14 10 4 3 4 4 3 3 3 3 2 1 1 1 1 0 0 0 0 22 21 23 20 13 10 14 20 15 6 4 4 5 4 4 4 4 3 1 1 1 1 1 0 0 0 29 32 33 24 15 11 12 18 15 6 5 5 5 5 5 6 6 3 1 1 1 1 1 0 0 0 34 41 37 23 14 10 7 11 11 6 5 4 5 5 5 6 6 4 1 1 1 1 1 1 0 0 38 46 34 19 12 9 5 6 6 5 4 4 4 4 4 5 5 3 1 1 1 1 1 1 0 0 39 42 23 13 8 8 5 5 5 5 4 4 3 3 3 5 6 3 1 1 1 1 1 1 0 0 28 27 12 7 5 6 6 6 6 4 4 4 3 3 3 5 5 2 1 1 1 1 1 1 0 0 20 17 7 3 4 6 7 7 6 4 3 3 3 3 3 4 3 1 1 1 1 2 1 1 0 0 13 11 4 2 3 6 9 10 8 4 2 3 3 3 3 3 2 1 1 1 1 2 2 1 0 0 4 4 2 2 3 5 9 12 10 4 2 2 3 2 2 2 2 1 1 1 1 1 2 1 1 0 3 3 2 2 3 5 9 12 8 2 2 2 3 3 2 1 1 1 1 1 1 1 2 1 1 0 3 2 2 1 2 3 7 8 3 1 1 1 2 2 1 1 1 1 0 1 1 2 2 2 1 0 2 1 1 1 1 1 4 3 1 0 1 1 1 1 1 0 0 0 0 0 1 1 1 1 1 0 0 0 0 0 0 0 2 2 0 0 0 0 0 0 0 0 0 0 0 0 0 0 0 0 0 0 58 69 77 98 116 115 110 90 50 43 43 31 24 21 17 15 13 10 7 6 6 7 8 9 5 1 83 74 85 90 114 132 108 62 29 29 30 28 29 28 22 18 17 13 8 7 7 8 10 12 7 1 89 89 87 74 88 112 88 38 20 25 29 35 37 34 26 20 18 13 8 7 8 9 12 14 9 1 60 69 64 45 51 72 63 40 40 43 43 43 40 35 27 19 14 11 7 7 8 10 13 16 11 2 26 34 35 29 38 57 61 62 65 54 44 38 34 30 23 15 11 9 7 7 8 10 13 16 12 3 17 19 25 29 37 58 75 82 74 48 32 27 26 24 19 12 9 8 8 8 9 10 12 16 12 3 17 17 24 34 45 65 83 87 70 41 25 21 21 19 16 13 10 9 9 9 9 10 12 15 12 3 17 18 23 31 48 63 74 75 57 34 22 19 17 15 14 14 12 10 11 10 10 10 12 15 12 3 17 21 24 27 41 47 49 49 37 28 21 18 15 12 13 16 15 11 11 11 11 10 12 14 11 3 19 24 26 26 34 33 26 24 25 25 19 16 13 11 13 17 18 14 11 11 11 11 12 13 9 3 23 28 30 31 38 33 21 18 25 26 18 15 13 12 14 18 20 16 12 11 11 11 12 13 8 2 32 35 39 39 44 38 32 31 34 31 21 18 17 16 18 22 23 19 13 11 10 11 13 13 8 3 43 47 52 52 54 51 55 61 56 42 27 25 23 21 23 27 30 23 14 11 10 10 13 13 8 4 59 72 79 74 70 68 77 89 81 54 37 33 32 30 30 35 39 30 16 11 9 9 12 11 6 3 77 102 111 95 80 76 79 96 92 59 41 37 39 40 40 45 48 35 16 10 8 8 11 10 5 3 95 123 132 108 84 75 65 83 81 50 38 36 39 42 44 50 52 38 18 9 7 9 11 9 5 3 110 133 136 108 80 66 47 54 53 38 34 32 31 33 37 47 52 39 19 10 7 8 11 11 7 4 113 129 124 95 64 55 35 30 35 35 35 31 25 24 31 46 51 35 17 11 8 7 8 11 8 3 99 106 94 70 45 43 33 29 35 37 37 34 28 23 30 43 45 29 15 12 10 7 7 7 5 2 83 84 61 41 30 36 36 35 41 38 34 34 28 22 27 37 35 22 13 12 11 10 7 5 2 1 66 67 38 23 25 38 43 46 50 40 29 28 23 18 22 27 24 16 11 10 11 12 9 5 2 0 39 39 24 22 32 45 54 65 64 42 25 23 21 17 16 17 15 11 10 9 11 13 10 6 2 0 27 24 20 25 38 51 63 75 64 36 22 21 22 19 13 11 10 8 8 9 11 13 13 9 4 1 28 21 16 19 32 47 64 66 41 21 16 16 17 16 10 6 5 5 6 8 11 14 16 12 5 1 26 18 10 10 17 27 48 45 17 9 10 10 9 9 7 4 3 2 3 6 8 11 15 15 7 2 17 15 5 2 5 12 35 34 9 5 7 7 7 7 5 2 2 2 3 3 3 4 12 13 4 1 111 126 128 162 179 183 190 168 111 93 91 80 79 78 63 46 35 31 30 32 35 36 36 35 20 4 135 128 134 161 191 205 194 140 83 80 79 79 84 83 68 50 40 35 34 37 42 44 45 43 25 5 139 147 147 163 196 208 184 113 67 75 83 91 94 88 71 52 42 37 35 39 47 52 53 52 34 7 112 131 133 154 188 197 174 121 92 96 104 103 97 87 68 50 42 37 36 41 49 55 57 58 41 9 72 86 94 126 168 184 174 148 131 121 112 97 88 81 65 49 42 39 38 43 50 54 56 60 46 12 61 62 78 114 144 168 177 168 153 130 103 82 78 75 62 50 44 43 43 46 51 53 54 60 49 16 62 59 74 115 141 160 175 172 157 130 94 72 73 70 61 53 48 47 48 50 52 52 53 59 51 19 57 59 67 101 140 158 166 167 152 121 84 69 68 64 60 58 54 53 52 52 52 51 52 60 52 18 52 62 69 88 129 137 139 148 130 99 73 67 64 58 57 62 61 57 53 53 54 53 53 62 52 17 51 64 73 84 111 107 98 104 95 80 66 63 61 56 57 64 66 61 54 54 58 57 56 62 50 21 55 66 76 85 103 95 71 67 76 74 64 62 63 60 60 65 68 63 55 57 62 59 57 61 47 26 66 74 82 90 105 95 76 76 82 80 73 73 74 70 67 69 71 66 57 59 61 58 59 61 44 25 84 88 93 99 109 105 107 115 111 103 95 92 86 78 72 73 77 73 61 60 59 54 58 59 42 18 104 116 121 120 122 127 143 154 147 128 115 106 96 85 78 79 86 83 67 60 57 52 57 58 39 12 125 147 156 148 137 144 158 168 163 137 117 109 104 96 90 90 96 89 66 55 50 48 56 55 37 19 150 169 179 168 149 148 153 163 158 126 102 101 102 100 96 97 103 94 65 48 42 46 56 51 37 27 172 183 188 175 155 143 131 140 133 98 84 87 89 90 91 98 107 96 64 46 38 43 51 48 37 21 177 185 189 173 151 134 102 96 92 78 80 83 80 80 88 103 111 93 61 48 37 37 42 44 33 9 168 175 177 159 134 124 91 69 75 80 86 87 82 78 88 104 106 84 58 49 38 32 32 35 27 6 152 154 150 129 104 105 87 75 83 89 94 93 85 77 84 97 95 75 56 48 41 36 33 31 23 10 131 132 112 91 83 94 90 90 99 100 95 90 81 73 77 83 79 67 53 44 44 44 37 27 18 10 111 112 90 81 95 107 108 115 121 112 96 86 78 71 70 70 66 59 48 39 44 49 44 31 18 9 99 95 85 92 112 121 126 134 129 110 91 81 77 73 64 57 55 53 44 37 42 51 52 39 21 9 88 79 74 87 109 121 132 133 111 87 76 70 68 67 59 47 42 38 33 34 41 51 55 45 27 14 70 61 59 66 78 95 116 109 68 51 54 52 48 49 48 37 27 22 22 26 34 47 56 51 32 16 44 50 48 46 50 69 101 90 38 28 37 38 33 35 35 24 14 14 13 10 23 41 53 40 15 5 178 198 196 212 218 220 224 214 187 172 172 175 181 177 151 106 76 68 69 73 80 92 102 102 86 56 198 192 192 211 224 229 224 203 181 175 175 176 177 168 141 107 83 73 72 77 85 97 108 111 97 81 197 198 198 215 231 232 217 184 165 168 170 170 166 153 132 108 88 76 75 81 90 102 114 119 108 91 192 196 196 216 233 232 210 173 153 156 160 159 153 144 129 109 89 78 77 83 92 103 114 123 115 96 183 187 186 208 229 228 208 181 161 155 155 150 146 141 127 106 88 81 81 86 93 101 111 124 118 96 175 181 183 203 222 222 210 191 176 165 154 146 145 140 124 103 89 87 88 92 97 101 110 124 120 98 164 176 180 200 218 218 212 198 184 171 155 145 143 133 117 102 95 95 96 98 102 105 113 126 123 102 142 163 164 179 207 214 210 203 191 174 154 143 135 122 111 105 102 102 102 104 107 111 120 133 129 108 114 136 138 146 185 199 199 199 188 167 149 137 124 112 107 108 109 109 108 109 114 122 132 142 133 109 100 114 121 130 161 173 175 179 172 158 145 133 120 110 107 111 114 114 112 116 127 138 145 148 132 105 98 109 121 131 150 155 150 153 158 154 142 131 122 114 110 113 116 118 120 129 142 149 149 147 123 96 103 111 124 136 149 147 138 144 152 150 142 135 129 121 116 116 120 126 131 140 147 148 144 136 109 84 115 120 132 141 148 144 144 154 156 155 152 146 136 127 122 122 128 136 139 142 141 135 128 119 98 76 133 138 147 151 151 153 164 173 172 167 162 155 144 134 131 132 138 143 140 136 127 117 115 112 95 73 152 158 166 168 161 164 177 183 181 173 165 159 152 146 143 141 143 142 131 121 113 109 114 113 98 81 173 175 182 181 171 170 179 184 184 172 159 157 155 152 148 144 142 137 120 109 105 109 115 113 102 91 190 188 192 190 180 174 175 181 177 159 147 147 149 150 148 145 143 133 115 106 103 107 111 109 100 87 198 197 199 195 186 179 169 164 157 143 138 139 141 144 145 146 145 133 115 110 101 98 100 98 89 70 198 200 203 196 186 181 164 146 140 136 136 135 134 137 141 145 143 131 117 112 100 88 82 82 75 57 194 194 197 189 177 175 160 144 138 138 140 138 132 131 134 138 137 128 119 114 102 88 78 76 70 58 188 185 180 169 165 169 159 147 142 144 145 140 131 125 126 128 127 124 118 112 105 95 83 75 67 59 185 181 168 157 164 172 164 153 150 152 147 141 133 124 121 120 121 121 114 105 103 100 90 79 69 59 183 177 166 161 168 173 168 161 157 154 148 141 134 125 117 113 115 118 109 96 95 100 98 87 71 59 174 169 162 162 166 169 167 162 155 148 143 138 131 124 116 109 109 109 101 91 89 96 100 94 78 64 145 145 150 154 151 152 156 150 133 126 124 121 114 110 107 100 95 93 89 84 83 93 101 98 81 66 96 123 139 146 137 135 146 138 113 107 107 103 97 95 96 87 80 82 78 69 74 91 99 89 67 43 142 163 162 172 176 176 177 170 152 142 145 151 156 152 125 82 55 49 49 51 56 70 82 84 76 53 165 157 156 169 180 183 178 166 155 150 151 152 150 138 111 80 61 52 51 52 57 70 84 90 84 78 164 159 157 170 184 184 165 145 141 143 142 139 132 118 99 83 66 54 52 54 58 70 84 93 92 87 166 163 158 171 188 180 147 120 117 120 120 118 113 106 98 84 66 55 54 55 59 69 82 94 96 92 165 165 158 171 190 178 141 116 105 102 104 107 108 106 98 81 63 56 56 58 61 67 79 94 96 90 156 164 160 171 190 178 147 123 108 102 105 109 110 106 93 74 62 59 60 62 64 68 79 94 95 89 141 158 157 167 186 179 157 136 118 109 111 112 109 99 84 71 65 65 66 67 69 74 84 97 98 93 117 143 141 143 167 172 162 146 130 120 116 111 101 87 76 71 69 70 71 73 76 82 93 104 104 99 87 109 108 103 133 154 153 147 136 125 116 105 90 78 73 73 74 75 77 79 83 94 107 114 108 100 72 81 84 85 109 131 137 139 134 127 116 101 86 76 74 75 77 79 82 86 96 111 120 121 107 93 70 75 82 88 101 114 120 125 129 125 114 99 86 78 75 76 79 83 90 100 112 122 125 119 98 80 69 76 87 94 101 105 105 113 120 118 109 98 87 80 78 79 83 92 103 112 119 122 118 106 84 68 73 80 93 99 102 100 99 108 114 112 107 99 90 84 84 87 93 103 110 113 113 108 99 87 73 65 84 89 100 104 103 100 103 111 114 113 110 103 96 93 95 99 103 107 109 105 97 88 82 78 71 66 99 101 109 111 106 103 107 114 117 116 114 110 106 104 106 107 105 103 99 90 83 81 81 81 75 69 113 112 119 120 111 106 111 117 121 120 117 114 112 111 111 108 102 94 86 81 80 82 84 84 79 75 125 121 126 126 117 115 119 123 124 119 113 110 110 111 110 106 98 87 81 80 81 82 82 82 78 74 134 131 135 133 124 126 129 125 119 113 105 102 104 106 107 103 96 87 83 83 80 76 74 73 70 65 140 141 143 139 132 133 130 119 111 105 99 95 95 98 100 98 94 89 86 86 79 69 62 60 58 53 145 145 146 141 136 136 128 115 105 100 97 93 90 90 92 91 91 90 89 88 81 67 57 55 54 51 148 144 139 132 133 137 128 113 102 98 97 94 89 85 84 85 87 89 89 88 81 70 59 56 54 51 150 142 132 123 127 135 126 110 100 99 99 97 92 84 80 80 84 88 88 84 78 71 63 59 56 53 149 142 131 121 122 128 121 109 102 102 102 101 95 86 80 79 83 87 84 76 70 69 67 64 58 53 144 140 131 123 119 119 114 108 104 105 104 102 96 86 81 80 83 87 82 72 65 66 69 68 60 54 118 120 123 124 115 107 105 102 99 99 96 92 87 81 78 77 78 80 76 68 62 64 68 69 62 55 75 101 115 123 111 99 99 97 93 92 86 81 78 74 73 72 72 73 70 63 59 62 68 68 59 40 0 0 0 0 0 0 0 0 0 0 0 0 0 0 0 0 0 0 0 0 0 0 0 0 0 0 0 0 0 0 0 0 0 0 0 0 0 0 0 0 0 0 0 0 0 0 0 0 0 0 0 0 0 0 0 0 0 0 0 0 0 0 0 0 0 0 0 0 0 0 0 0 0 0 0 0 0 0 0 0 0 0 0 0 0 0 0 0 0 0 0 0 0 0 0 0 0 0 0 0 0 0 0 0 0 0 0 0 0 0 0 0 0 0 0 0 0 0 0 0 0 0 0 0 0 0 0 0 0 0 0 0 0 0 0 0 0 0 0 0 0 0 0 0 0 0 0 0 0 0 0 0 0 0 0 0 0 0 0 0 0 0 0 0 0 0 0 0 0 0 0 0 0 0 0 0 0 0 0 0 0 0 0 0 0 0 0 0 0 0 0 0 0 0 0 0 0 0 0 0 0 0 0 0 0 0 0 0 0 0 0 0 0 0 0 0 0 0 0 0 0 0 0 0 0 0 0 0 0 0 0 0 0 0 0 0 0 0 0 0 0 0 0 0 0 0 0 0 0 0 0 0 0 0 0 0 0 0 0 0 0 0 0 0 0 0 0 0 0 0 0 0 0 0 0 0 0 0 0 0 0 0 0 0 0 0 0 0 0 0 0 0 0 0 0 0 0 0 0 0 0 0 0 0 0 0 0 0 0 0 0 0 0 0 0 0 0 0 0 0 0 0 0 0 0 0 0 0 0 0 0 0 0 0 0 0 0 0 0 0 0 0 0 0 0 0 0 0 0 0 0 0 0 0 0 0 0 0 0 0 0 0 0 0 0 0 0 0 0 0 0 0 0 0 0 0 0 0 0 0 0 0 0 0 0 0 0 0 0 0 0 0 0 0 0 0 0 0 0 0 0 0 0 0 0 0 0 0 0 0 0 0 0 0 0 0 0 0 0 0 0 0 0 0 0 0 0 0 0 0 0 0 0 0 0 0 0 0 0 0 0 0 0 0 0 0 0 0 0 0 0 0 0 0 0 0 0 0 0 0 0 0 0 0 0 0 0 0 0 0 0 0 0 0 0 0 0 0 0 0 0 0 0 0 0 0 0 0 0 0 0 0 0 0 0 0 0 0 0 0 0 0 0 0 0 0 0 0 0 0 0 0 0 0 0 0 0 0 0 0 0 0 0 0 0 0 0 0 0 0 0 0 0 0 0 0 0 0 0 0 0 0 0 0 0 0 0 0 0 0 0 0 0 0 0 0 0 0 0 0 0 0 0 0 0 0 0 0 0 0 0 0 0 0 0 0 0 0 0 0 0 0 0 0 0 0 0 0 0 0 0 0 0 0 0 0 0 0 0 0 0 0 0 0 0 0 0 0 0 0 0 0 0 0 0 0 0 0 0 0 0 0 0 0 0 0 0 0 0 0 0 0 0 0 0 0 0 0 0 0 0 0 0 0 0 0 0 0 0 0 0 0 0 0 0 0 0 0 0 0 0 0 0 0 0 0 0 0 0 0 0 0 0 0 0 0 
</DataArray>
<DataArray Name="HRRPUV" NumberOfComponents="1" type="UInt8" format="ascii">