<?xml version="1.0"?>
<VTKFile type="ImageData" version="1.0" byte_order="LittleEndian" header_type="UInt64">
<ImageData WholeExtent="25 50 0 25 0 15"
 Origin="15.0000 0.0000 0.0000" Spacing="0.6000 0.6000 0.6000">
<Piece Extent="25 50 0 25 0 15">
<PointData>
<DataArray Name="TEMPERATURE" NumberOfComponents="1" type="Float32" format="ascii">
20.0 20.0 20.0 20.1 20.1 20.1 20.1 20.1 20.1 20.1 20.1 20.0 20.0 20.0 20.0 20.0 20.0 20.0 20.0 20.0 20.0 20.0 20.0 20.0 20.0 20.0 20.1 20.1 20.1 20.1 20.1 20.1 20.1 20.2 20.2 20.1 20.1 20.1 20.1 20.1 20.1 20.1 20.1 20.1 20.1 20.1 20.1 20.1 20.0 20.0 20.0 20.0 20.1 20.2 20.2 20.2 20.2 20.2 20.2 20.3 20.3 20.2 20.2 20.2 20.2 20.2 20.1 20.1 20.1 20.1 20.1 20.1 20.1 20.1 20.1 20.1 20.0 20.0 20.2 20.3 20.3 20.3 20.3 20.3 20.3 20.4 20.4 20.4 20.3 20.3 20.3 20.2 20.2 20.2 20.2 20.2 20.2 20.2 20.2 20.2 20.1 20.1 20.1 20.0 20.3 20.3 20.4 20.4 20.5 20.5 20.5 20.5 20.5 20.5 20.4 20.4 20.4 20.3 20.3 20.3 20.3 20.3 20.3 20.3 20.3 20.2 20.2 20.1 20.1 20.0 20.4 20.4 20.5 20.5 20.6 20.6 20.6 20.6 20.7 20.6 20.5 20.5 20.5 20.5 20.4 20.4 20.4 20.4 20.4 20.4 20.3 20.3 20.2 20.1 20.1 20.0 20.5 20.5 20.6 20.6 20.7 20.7 20.8 20.8 20.8 20.8 20.7 20.6 20.6 20.6 20.6 20.5 20.5 20.5 20.5 20.4 20.4 20.3 20.2 20.1 20.1 20.0 20.6 20.6 20.7 20.8 20.8 20.9 21.0 21.0 21.0 20.9 20.9 20.8 20.7 20.7 20.7 20.6 20.6 20.6 20.6 20.5 20.4 20.3 20.2 20.2 20.1 20.0 20.7 20.8 20.8 20.9 21.0 21.1 21.2 21.2 21.1 21.0 21.1 21.0 20.9 20.8 20.8 20.8 20.8 20.7 20.6 20.5 20.4 20.3 20.3 20.2 20.1 20.0 20.9 20.9 21.0 21.1 21.2 21.3 21.4 21.4 21.3 21.2 21.3 21.2 21.1 21.0 21.0 20.9 20.9 20.8 20.7 20.5 20.5 20.4 20.3 20.2 20.1 20.1 21.0 21.1 21.2 21.3 21.4 21.5 21.6 21.7 21.6 21.5 21.5 21.4 21.2 21.2 21.1 21.1 21.0 20.9 20.7 20.6 20.5 20.4 20.3 20.2 20.1 20.1 21.2 21.3 21.4 21.5 21.6 21.7 21.9 22.0 22.0 21.8 21.7 21.5 21.4 21.4 21.3 21.3 21.1 20.9 20.8 20.7 20.5 20.4 20.3 20.2 20.1 20.1 21.4 21.5 21.6 21.8 21.9 22.1 22.2 22.4 22.3 22.1 21.9 21.7 21.6 21.6 21.5 21.3 21.1 21.0 20.8 20.7 20.6 20.5 20.3 20.2 20.1 20.1 21.6 21.7 21.9 22.1 22.3 22.5 22.7 22.8 22.6 22.5 22.3 22.1 22.0 21.9 21.7 21.4 21.2 21.0 20.9 20.8 20.6 20.5 20.4 20.2 20.1 20.1 21.8 22.0 22.2 22.4 22.7 23.0 23.2 23.3 23.2 22.9 22.7 22.5 22.3 22.1 21.8 21.5 21.3 21.1 21.0 20.8 20.7 20.5 20.4 20.3 20.1 20.1 22.1 22.3 22.6 22.8 23.1 23.5 23.9 24.1 23.9 23.5 23.2 22.9 22.6 22.2 21.9 21.6 21.4 21.2 21.0 20.9 20.7 20.5 20.4 20.3 20.1 20.1 22.5 22.7 23.1 23.4 23.8 24.4 25.0 25.0 24.7 24.2 23.6 23.2 22.8 22.4 22.0 21.8 21.5 21.3 21.1 20.9 20.7 20.6 20.4 20.3 20.1 20.1 22.9 23.2 23.6 24.1 24.6 25.4 26.1 26.0 25.6 24.9 24.1 23.5 23.0 22.6 22.2 21.9 21.6 21.4 21.2 21.0 20.8 20.6 20.5 20.3 20.2 20.1 23.3 23.8 24.5 25.4 25.9 26.6 27.4 27.5 26.9 25.9 24.7 23.9 23.3 22.9 22.6 22.1 21.8 21.5 21.3 21.1 20.9 20.7 20.6 20.4 20.2 20.1 24.0 24.6 25.7 27.4 29.2 32.2 34.4 33.1 30.1 27.2 25.5 24.5 23.8 23.3 22.9 22.3 21.9 21.7 21.5 21.2 21.0 20.8 20.6 20.4 20.2 20.1 25.1 26.1 27.4 30.7 33.3 37.0 40.3 36.8 32.2 27.9 26.0 25.1 24.3 23.6 23.1 22.5 22.1 21.8 21.5 21.2 21.0 20.8 20.6 20.4 20.2 20.1 25.9 27.4 29.3 34.6 38.9 20.0 20.0 35.0 32.6 28.9 26.9 25.6 24.5 23.8 23.2 22.6 22.3 21.9 21.5 21.2 21.0 20.7 20.5 20.4 20.2 20.2 26.1 27.6 30.1 36.5 41.3 20.0 20.0 36.2 33.6 29.6 27.2 25.7 24.7 24.0 23.3 22.7 22.4 21.9 21.5 21.3 21.0 20.7 20.5 20.3 20.2 20.1 25.6 27.1 30.5 35.7 37.2 37.0 40.6 38.4 33.1 28.4 26.5 25.2 24.5 23.8 23.1 22.6 22.3 21.9 21.5 21.2 21.0 20.7 20.5 20.3 20.2 20.1 24.9 26.3 29.0 31.5 31.9 33.5 35.7 34.0 29.4 26.5 25.3 24.3 23.7 23.2 22.7 22.3 22.0 21.7 21.4 21.2 20.9 20.7 20.5 20.3 20.2 20.1 23.4 25.2 26.3 27.2 28.1 29.3 29.5 27.8 26.0 25.0 24.3 23.6 23.1 22.7 22.3 22.0 21.7 21.5 21.2 21.0 20.9 20.7 20.5 20.3 20.2 20.1 20.0 20.0 20.0 20.1 20.1 20.1 20.1 20.1 20.1 20.1 20.1 20.0 20.0 20.0 20.0 20.0 20.0 20.0 20.0 20.0 20.0 20.0 20.0 20.0 20.0 20.0 20.1 20.1 20.1 20.1 20.1 20.1 20.1 20.1 20.1 20.1 20.1 20.1 20.1 20.1 20.1 20.1 20.1 20.1 20.1 20.1 20.1 20.0 20.0 20.0 20.0 20.0 20.1 20.2 20.2 20.2 20.2 20.2 20.2 20.2 20.2 20.2 20.2 20.2 20.2 20.2 20.1 20.1 20.1 20.1 20.1 20.1 20.1 20.1 20.1 20.1 20.0 20.0 20.2 20.2 20.3 20.3 20.3 20.3 20.3 20.3 20.4 20.3 20.3 20.3 20.2 20.2 20.2 20.2 20.2 20.2 20.2 20.2 20.2 20.2 20.1 20.1 20.0 20.0 20.3 20.3 20.4 20.4 20.4 20.5 20.4 20.5 20.5 20.4 20.4 20.4 20.3 20.3 20.3 20.3 20.3 20.3 20.3 20.3 20.2 20.2 20.2 20.1 20.1 20.0 20.4 20.4 20.5 20.6 20.6 20.6 20.6 20.6 20.6 20.6 20.5 20.5 20.5 20.4 20.4 20.4 20.4 20.4 20.4 20.3 20.3 20.3 20.2 20.1 20.1 20.0 20.5 20.5 20.6 20.7 20.7 20.8 20.8 20.8 20.8 20.7 20.7 20.6 20.6 20.6 20.5 20.5 20.5 20.5 20.5 20.4 20.4 20.3 20.2 20.1 20.1 20.0 20.6 20.6 20.7 20.8 20.9 20.9 21.0 21.0 20.9 20.9 20.8 20.8 20.7 20.7 20.6 20.6 20.6 20.6 20.6 20.5 20.4 20.3 20.2 20.1 20.1 20.0 20.7 20.8 20.8 20.9 21.0 21.1 21.2 21.2 21.1 21.1 21.0 21.0 20.9 20.8 20.8 20.7 20.7 20.7 20.6 20.5 20.4 20.3 20.2 20.2 20.1 20.0 20.8 20.9 21.0 21.1 21.2 21.3 21.4 21.4 21.3 21.3 21.2 21.1 21.0 21.0 20.9 20.9 20.9 20.8 20.7 20.5 20.4 20.3 20.3 20.2 20.1 20.0 21.0 21.1 21.2 21.3 21.4 21.5 21.7 21.7 21.6 21.5 21.4 21.3 21.2 21.1 21.1 21.1 21.0 20.8 20.7 20.6 20.5 20.4 20.3 20.2 20.1 20.1 21.1 21.3 21.4 21.5 21.7 21.8 22.0 22.0 21.9 21.8 21.6 21.5 21.4 21.4 21.3 21.2 21.1 20.9 20.7 20.6 20.5 20.4 20.3 20.2 20.1 20.1 21.3 21.5 21.6 21.8 22.0 22.2 22.3 22.4 22.3 22.1 21.9 21.8 21.7 21.6 21.5 21.3 21.1 20.9 20.8 20.7 20.6 20.4 20.3 20.2 20.1 20.1 21.6 21.7 21.9 22.1 22.3 22.6 22.8 22.9 22.7 22.5 22.3 22.1 22.0 21.9 21.7 21.4 21.2 21.0 20.9 20.7 20.6 20.5 20.3 20.2 20.1 20.1 21.8 22.0 22.2 22.5 22.8 23.2 23.5 23.5 23.3 23.0 22.7 22.5 22.3 22.1 21.8 21.5 21.3 21.1 20.9 20.8 20.6 20.5 20.4 20.2 20.1 20.1 22.2 22.4 22.7 22.9 23.4 23.9 24.3 24.4 24.0 23.5 23.2 22.9 22.6 22.2 21.9 21.6 21.4 21.2 21.0 20.8 20.7 20.5 20.4 20.2 20.1 20.1 22.5 22.8 23.2 23.6 24.1 24.9 25.5 25.3 24.8 24.2 23.7 23.3 22.9 22.4 22.0 21.8 21.5 21.3 21.1 20.9 20.7 20.5 20.4 20.3 20.1 20.1 23.0 23.3 23.8 24.6 25.3 26.1 26.9 26.5 25.7 25.0 24.2 23.6 23.1 22.6 22.3 21.9 21.6 21.4 21.2 21.0 20.8 20.6 20.4 20.3 20.1 20.1 23.5 24.0 25.2 27.7 28.4 28.1 29.2 28.5 27.1 26.0 24.9 24.0 23.4 23.0 22.6 22.2 21.8 21.5 21.3 21.1 20.9 20.7 20.5 20.3 20.2 20.1 24.2 24.8 26.6 33.4 38.1 49.1 52.9 38.6 30.4 27.4 25.7 24.6 23.9 23.4 22.9 22.4 22.0 21.7 21.4 21.2 20.9 20.7 20.5 20.4 20.2 20.1 25.2 26.3 28.8 40.5 94.3 188.4 174.4 75.6 34.6 28.7 26.5 25.3 24.5 23.8 23.2 22.6 22.1 21.8 21.5 21.2 21.0 20.7 20.6 20.4 20.2 20.2 26.3 27.9 31.5 43.7 164.8 418.1 329.4 97.7 37.0 30.4 27.4 26.0 24.8 24.1 23.4 22.8 22.3 21.9 21.6 21.2 21.0 20.8 20.6 20.4 20.2 20.2 26.9 28.8 32.2 42.2 143.6 366.6 265.6 70.3 36.7 30.7 27.7 26.1 25.0 24.1 23.4 22.8 22.4 22.0 21.6 21.3 21.0 20.7 20.5 20.4 20.2 20.1 26.3 29.0 33.9 42.6 78.1 146.6 119.4 49.1 34.0 28.8 26.8 25.4 24.6 23.9 23.1 22.7 22.3 21.9 21.5 21.2 21.0 20.7 20.5 20.3 20.2 20.1 25.2 27.6 31.8 37.9 41.2 45.6 46.2 37.3 29.8 26.6 25.4 24.4 23.8 23.2 22.7 22.3 22.0 21.7 21.4 21.1 20.9 20.7 20.5 20.3 20.2 20.1 23.5 25.4 26.7 29.2 30.7 31.5 32.5 29.9 26.6 25.3 24.5 23.8 23.2 22.7 22.3 22.0 21.7 21.5 21.2 21.0 20.8 20.6 20.5 20.3 20.2 20.1 20.0 20.0 20.0 20.1 20.1 20.0 20.1 20.1 20.1 20.1 20.1 20.0 20.0 20.0 20.0 20.0 20.0 20.0 20.0 20.0 20.0 20.0 20.0 20.0 20.0 20.0 20.1 20.1 20.1 20.1 20.1 20.1 20.1 20.1 20.1 20.1 20.1 20.1 20.1 20.1 20.1 20.1 20.1 20.1 20.1 20.1 20.0 20.0 20.0 20.0 20.0 20.0 20.1 20.1 20.2 20.2 20.2 20.2 20.2 20.2 20.2 20.2 20.2 20.2 20.2 20.1 20.1 20.1 20.1 20.1 20.1 20.1 20.1 20.1 20.1 20.1 20.0 20.0 20.2 20.2 20.3 20.3 20.3 20.3 20.3 20.3 20.3 20.3 20.3 20.3 20.2 20.2 20.2 20.2 20.2 20.2 20.2 20.2 20.1 20.1 20.1 20.1 20.0 20.0 20.3 20.3 20.4 20.4 20.4 20.5 20.4 20.5 20.4 20.4 20.4 20.4 20.3 20.3 20.3 20.3 20.3 20.2 20.2 20.2 20.2 20.2 20.1 20.1 20.0 20.0 20.4 20.4 20.5 20.5 20.6 20.6 20.6 20.6 20.6 20.5 20.5 20.5 20.4 20.4 20.4 20.4 20.3 20.3 20.3 20.3 20.3 20.2 20.1 20.1 20.0 20.0 20.5 20.5 20.5 20.6 20.7 20.8 20.8 20.8 20.8 20.7 20.6 20.6 20.5 20.5 20.5 20.4 20.4 20.4 20.4 20.4 20.3 20.2 20.2 20.1 20.1 20.0 20.6 20.6 20.7 20.7 20.8 20.9 21.0 21.0 20.9 20.9 20.8 20.7 20.6 20.6 20.6 20.5 20.5 20.5 20.5 20.4 20.3 20.2 20.2 20.1 20.1 20.0 20.7 20.7 20.8 20.9 21.0 21.2 21.2 21.2 21.1 21.0 21.0 20.9 20.8 20.7 20.7 20.7 20.7 20.7 20.6 20.5 20.3 20.3 20.2 20.1 20.1 20.0 20.8 20.9 20.9 21.0 21.2 21.3 21.4 21.4 21.4 21.3 21.1 21.0 20.9 20.9 20.9 20.9 20.9 20.8 20.6 20.5 20.4 20.3 20.2 20.1 20.1 20.0 20.9 21.0 21.1 21.3 21.4 21.6 21.8 21.8 21.6 21.5 21.3 21.2 21.1 21.1 21.1 21.1 21.0 20.8 20.6 20.5 20.4 20.3 20.2 20.2 20.1 20.0 21.1 21.2 21.4 21.5 21.7 21.9 22.1 22.1 21.9 21.7 21.6 21.4 21.4 21.4 21.3 21.2 21.0 20.8 20.7 20.6 20.5 20.4 20.3 20.2 20.1 20.0 21.3 21.5 21.6 21.8 22.1 22.3 22.5 22.5 22.3 22.0 21.9 21.8 21.7 21.6 21.5 21.3 21.0 20.9 20.7 20.6 20.5 20.4 20.3 20.2 20.1 20.0 21.6 21.7 21.9 22.2 22.5 22.8 23.1 23.1 22.8 22.5 22.3 22.2 22.1 21.9 21.6 21.3 21.1 20.9 20.8 20.7 20.5 20.4 20.3 20.2 20.1 20.0 21.9 22.1 22.3 22.7 23.1 23.6 23.9 23.8 23.4 23.0 22.8 22.6 22.4 22.0 21.7 21.4 21.2 21.0 20.9 20.7 20.6 20.4 20.3 20.2 20.1 20.0 22.3 22.5 22.8 23.2 23.8 24.3 24.9 24.8 24.1 23.6 23.3 23.0 22.6 22.2 21.9 21.6 21.4 21.2 20.9 20.8 20.6 20.5 20.3 20.2 20.1 20.1 22.7 23.0 23.5 24.1 24.7 25.7 26.4 25.9 25.0 24.3 23.9 23.4 22.9 22.5 22.1 21.8 21.5 21.3 21.0 20.8 20.7 20.5 20.4 20.2 20.1 20.1 23.2 23.7 24.4 26.1 27.3 28.4 30.0 28.5 26.1 25.2 24.5 23.8 23.2 22.8 22.3 22.0 21.6 21.4 21.1 20.9 20.7 20.6 20.4 20.3 20.1 20.1 23.8 24.9 26.6 35.3 37.8 34.0 37.1 34.8 29.1 26.6 25.2 24.3 23.6 23.1 22.6 22.2 21.8 21.5 21.2 21.0 20.8 20.6 20.4 20.3 20.2 20.1 24.8 26.4 30.2 55.3 66.1 72.0 86.6 67.7 41.3 28.9 26.3 25.0 24.1 23.5 23.0 22.5 22.0 21.7 21.4 21.1 20.9 20.7 20.5 20.3 20.2 20.1 26.1 29.3 42.2 88.7 175.3 270.6 273.8 164.9 66.7 32.2 27.6 26.0 24.9 24.1 23.5 22.8 22.2 21.9 21.5 21.2 20.9 20.7 20.5 20.4 20.2 20.1 27.3 31.1 52.9 109.3 272.9 431.0 381.4 200.9 70.3 34.2 28.8 26.9 25.5 24.5 23.7 23.0 22.5 22.1 21.6 21.3 21.0 20.8 20.6 20.4 20.2 20.1 28.1 31.6 47.2 90.4 243.3 398.8 340.2 175.6 70.2 34.4 28.9 27.0 25.7 24.6 23.6 23.0 22.5 22.1 21.7 21.3 21.0 20.8 20.6 20.4 20.2 20.1 27.3 31.4 41.2 69.3 150.2 243.8 216.6 121.8 61.2 31.5 27.6 26.0 25.1 24.2 23.3 22.7 22.3 21.9 21.6 21.3 21.0 20.7 20.5 20.3 20.2 20.1 25.6 28.4 35.8 54.4 71.0 80.3 72.1 49.4 34.8 27.6 26.0 24.8 24.1 23.4 22.8 22.4 22.0 21.7 21.4 21.1 20.9 20.7 20.5 20.3 20.2 20.1 23.7 25.9 28.2 34.8 38.1 37.4 37.9 33.4 28.0 26.1 25.1 24.2 23.5 22.9 22.4 22.1 21.7 21.5 21.2 21.0 20.8 20.6 20.5 20.3 20.2 20.1 20.0 20.0 20.0 20.1 20.1 20.0 20.1 20.1 20.1 20.1 20.1 20.0 20.0 20.0 20.0 20.0 20.0 20.0 20.0 20.0 20.0 20.0 20.0 20.0 20.0 20.0 20.1 20.1 20.1 20.1 20.1 20.1 20.1 20.1 20.1 20.1 20.1 20.1 20.1 20.1 20.1 20.1 20.1 20.1 20.1 20.0 20.0 20.0 20.0 20.0 20.0 20.0 20.1 20.1 20.2 20.2 20.2 20.2 20.2 20.2 20.2 20.2 20.2 20.2 20.1 20.1 20.1 20.1 20.1 20.1 20.1 20.1 20.1 20.1 20.1 20.1 20.0 20.0 20.2 20.2 20.3 20.3 20.3 20.3 20.3 20.4 20.4 20.3 20.3 20.2 20.2 20.2 20.2 20.2 20.2 20.2 20.2 20.1 20.1 20.1 20.1 20.1 20.0 20.0 20.3 20.3 20.3 20.4 20.4 20.5 20.5 20.5 20.5 20.4 20.4 20.3 20.3 20.3 20.3 20.3 20.2 20.2 20.2 20.2 20.2 20.2 20.1 20.1 20.0 20.0 20.4 20.4 20.5 20.5 20.6 20.6 20.6 20.6 20.6 20.6 20.5 20.4 20.4 20.4 20.4 20.3 20.3 20.3 20.3 20.3 20.2 20.2 20.1 20.1 20.0 20.0 20.4 20.5 20.6 20.6 20.7 20.7 20.8 20.8 20.8 20.7 20.6 20.6 20.5 20.5 20.5 20.4 20.4 20.4 20.4 20.3 20.3 20.2 20.1 20.1 20.0 20.0 20.5 20.6 20.7 20.8 20.9 20.9 21.0 21.0 21.0 20.9 20.8 20.7 20.6 20.6 20.6 20.5 20.5 20.5 20.5 20.4 20.3 20.2 20.2 20.1 20.1 20.0 20.7 20.7 20.8 21.0 21.1 21.2 21.2 21.2 21.2 21.0 20.9 20.8 20.8 20.7 20.7 20.7 20.7 20.7 20.6 20.4 20.3 20.2 20.2 20.1 20.1 20.0 20.8 20.9 21.0 21.1 21.3 21.4 21.5 21.5 21.4 21.2 21.1 21.0 20.9 20.9 20.9 20.9 20.8 20.7 20.6 20.4 20.3 20.3 20.2 20.1 20.1 20.0 21.0 21.1 21.2 21.4 21.5 21.7 21.8 21.8 21.6 21.5 21.3 21.2 21.1 21.1 21.1 21.1 20.9 20.8 20.6 20.5 20.4 20.3 20.2 20.1 20.1 20.0 21.2 21.3 21.4 21.6 21.8 22.0 22.2 22.2 22.0 21.7 21.5 21.5 21.4 21.4 21.3 21.2 21.0 20.8 20.6 20.5 20.4 20.3 20.2 20.2 20.1 20.0 21.4 21.5 21.7 21.9 22.2 22.4 22.6 22.6 22.3 22.0 21.8 21.8 21.8 21.7 21.5 21.2 21.0 20.8 20.7 20.6 20.5 20.4 20.3 20.2 20.1 20.0 21.6 21.8 22.0 22.3 22.7 22.9 23.2 23.2 22.8 22.5 22.3 22.2 22.1 21.9 21.6 21.3 21.1 20.9 20.8 20.6 20.5 20.4 20.3 20.2 20.1 20.0 21.9 22.2 22.4 22.8 23.3 23.7 24.0 23.9 23.4 23.0 22.8 22.6 22.4 22.0 21.7 21.4 21.2 21.0 20.9 20.7 20.6 20.4 20.3 20.2 20.1 20.0 22.3 22.7 23.1 23.5 24.0 24.5 24.9 24.8 24.2 23.7 23.4 23.1 22.6 22.2 21.9 21.6 21.4 21.2 20.9 20.8 20.6 20.5 20.3 20.2 20.1 20.0 22.8 23.3 24.2 24.9 25.5 26.5 27.1 26.4 25.3 24.6 24.1 23.5 23.0 22.5 22.1 21.8 21.5 21.3 21.1 20.8 20.7 20.5 20.3 20.2 20.1 20.1 23.4 24.1 26.0 28.0 28.6 30.3 32.3 30.0 26.7 25.6 24.8 24.0 23.4 22.9 22.4 22.0 21.7 21.4 21.2 20.9 20.7 20.5 20.4 20.2 20.1 20.1 24.7 28.1 34.1 41.3 40.7 39.8 44.8 41.1 32.5 27.7 25.7 24.7 23.8 23.2 22.7 22.2 21.9 21.5 21.3 21.0 20.8 20.6 20.5 20.3 20.1 20.1 28.0 38.6 54.6 79.2 79.7 78.8 98.2 83.9 49.0 30.6 26.8 25.4 24.4 23.7 23.1 22.5 22.1 21.7 21.4 21.2 20.9 20.7 20.5 20.3 20.2 20.1 29.5 43.6 89.2 170.0 227.2 263.6 283.9 203.4 83.0 34.3 28.7 26.7 25.3 24.4 23.6 23.0 22.4 22.0 21.6 21.2 21.0 20.7 20.6 20.4 20.2 20.1 28.6 38.2 98.9 225.8 354.9 421.7 411.1 263.5 90.5 37.3 30.1 27.8 26.2 24.9 24.0 23.3 22.6 22.2 21.7 21.3 21.0 20.8 20.6 20.4 20.2 20.1 29.2 36.3 76.6 181.8 326.9 412.9 401.4 268.7 103.5 39.9 30.0 27.8 26.4 25.1 24.1 23.3 22.6 22.2 21.8 21.4 21.1 20.8 20.6 20.3 20.2 20.1 28.5 33.9 53.2 114.0 208.7 275.8 275.1 208.2 102.3 37.4 28.5 26.6 25.6 24.6 23.7 23.0 22.5 22.0 21.7 21.4 21.1 20.8 20.5 20.3 20.2 20.1 26.2 28.4 36.1 64.8 91.3 102.0 100.3 86.6 57.2 30.4 26.7 25.3 24.4 23.7 23.0 22.6 22.2 21.8 21.5 21.2 21.0 20.8 20.5 20.3 20.2 20.1 23.8 26.2 29.1 38.7 43.1 42.1 45.0 43.5 34.6 27.1 25.6 24.5 23.7 23.1 22.6 22.2 21.9 21.5 21.3 21.1 20.9 20.7 20.5 20.3 20.1 20.1 20.0 20.0 20.1 20.1 20.0 20.1 20.1 20.1 20.1 20.1 20.1 20.0 20.0 20.0 20.0 20.0 20.0 20.0 20.0 20.0 20.0 20.0 20.0 20.0 20.0 20.0 20.1 20.1 20.1 20.1 20.1 20.1 20.1 20.1 20.1 20.1 20.1 20.1 20.1 20.1 20.1 20.1 20.1 20.1 20.1 20.0 20.0 20.0 20.0 20.0 20.0 20.0 20.2 20.2 20.2 20.2 20.2 20.2 20.2 20.2 20.2 20.2 20.2 20.2 20.2 20.1 20.1 20.1 20.1 20.1 20.1 20.1 20.1 20.1 20.1 20.1 20.0 20.0 20.2 20.3 20.3 20.3 20.3 20.3 20.3 20.4 20.4 20.3 20.3 20.3 20.2 20.2 20.2 20.2 20.2 20.2 20.2 20.2 20.1 20.1 20.1 20.1 20.0 20.0 20.3 20.4 20.4 20.5 20.5 20.4 20.5 20.5 20.5 20.5 20.4 20.4 20.3 20.3 20.3 20.3 20.3 20.2 20.2 20.2 20.2 20.2 20.1 20.1 20.0 20.0 20.4 20.5 20.6 20.6 20.6 20.6 20.6 20.7 20.7 20.6 20.5 20.5 20.4 20.4 20.4 20.4 20.4 20.3 20.3 20.3 20.3 20.2 20.2 20.1 20.0 20.0 20.5 20.6 20.7 20.8 20.8 20.8 20.8 20.8 20.8 20.8 20.7 20.6 20.6 20.5 20.5 20.5 20.5 20.4 20.4 20.4 20.3 20.2 20.2 20.1 20.1 20.0 20.6 20.7 20.8 20.9 21.0 21.0 21.0 21.0 21.0 20.9 20.8 20.7 20.7 20.7 20.6 20.6 20.6 20.6 20.5 20.4 20.3 20.2 20.2 20.1 20.1 20.0 20.7 20.8 21.0 21.1 21.2 21.2 21.3 21.3 21.2 21.1 21.0 20.9 20.8 20.8 20.8 20.8 20.7 20.7 20.6 20.5 20.4 20.3 20.2 20.1 20.1 20.0 20.9 21.0 21.1 21.3 21.4 21.4 21.5 21.5 21.4 21.3 21.2 21.1 21.0 21.0 20.9 20.9 20.9 20.7 20.6 20.5 20.4 20.3 20.2 20.1 20.1 20.0 21.0 21.1 21.3 21.5 21.6 21.7 21.8 21.8 21.7 21.5 21.4 21.3 21.2 21.2 21.1 21.1 20.9 20.8 20.6 20.5 20.4 20.3 20.2 20.2 20.1 20.0 21.2 21.4 21.5 21.7 21.9 22.0 22.2 22.2 22.0 21.8 21.6 21.6 21.5 21.5 21.3 21.2 21.0 20.8 20.7 20.6 20.5 20.4 20.3 20.2 20.1 20.0 21.5 21.6 21.8 22.0 22.3 22.5 22.6 22.6 22.4 22.1 21.9 21.9 21.8 21.7 21.5 21.3 21.1 20.9 20.8 20.6 20.5 20.4 20.3 20.2 20.1 20.0 21.7 21.9 22.1 22.4 22.7 22.9 23.1 23.1 22.8 22.5 22.4 22.3 22.1 21.9 21.6 21.4 21.2 21.0 20.9 20.7 20.6 20.4 20.3 20.2 20.1 20.0 22.0 22.3 22.5 22.9 23.2 23.5 23.8 23.8 23.4 23.1 22.9 22.7 22.4 22.1 21.8 21.5 21.3 21.1 21.0 20.8 20.6 20.5 20.3 20.2 20.1 20.1 22.4 23.1 23.6 23.7 24.0 24.3 24.8 24.8 24.2 23.8 23.5 23.1 22.7 22.3 22.0 21.7 21.5 21.3 21.1 20.9 20.7 20.5 20.4 20.2 20.1 20.1 23.1 24.4 25.7 25.6 25.7 26.4 27.0 26.5 25.4 24.7 24.2 23.6 23.0 22.6 22.3 22.0 21.7 21.4 21.2 20.9 20.7 20.5 20.4 20.2 20.1 20.1 23.8 25.8 28.4 28.9 27.3 28.8 31.3 29.5 26.9 25.7 24.9 24.2 23.5 23.0 22.6 22.2 21.8 21.5 21.2 21.0 20.8 20.6 20.4 20.3 20.1 20.1 26.0 33.7 41.7 40.6 32.7 35.7 43.3 40.0 33.2 28.0 25.8 24.8 24.0 23.3 22.8 22.4 22.0 21.7 21.4 21.1 20.9 20.7 20.5 20.3 20.2 20.1 36.4 64.2 92.2 93.3 63.0 62.7 83.3 68.8 43.9 30.6 26.9 25.6 24.6 23.8 23.2 22.7 22.2 21.9 21.6 21.3 21.0 20.8 20.6 20.4 20.2 20.1 42.4 84.6 164.0 232.2 189.1 167.1 204.7 143.0 59.2 33.8 29.1 27.0 25.6 24.5 23.7 23.1 22.6 22.1 21.7 21.3 21.0 20.8 20.6 20.4 20.2 20.1 35.7 64.0 166.1 309.9 294.1 264.7 314.4 203.9 67.8 37.4 30.8 28.2 26.6 25.2 24.3 23.4 22.8 22.2 21.8 21.4 21.0 20.8 20.6 20.4 20.2 20.1 31.7 51.2 127.5 254.6 266.5 283.0 355.3 247.1 93.9 40.6 30.6 28.1 26.7 25.5 24.5 23.5 22.8 22.2 21.8 21.4 21.1 20.8 20.6 20.4 20.2 20.1 29.8 44.7 84.4 155.4 181.3 211.8 271.0 232.9 115.8 38.8 28.9 26.9 25.9 25.0 24.1 23.3 22.7 22.2 21.8 21.5 21.1 20.8 20.6 20.4 20.2 20.1 26.5 30.5 40.5 71.2 91.7 95.2 120.0 133.6 82.4 32.0 27.1 25.6 24.7 24.1 23.4 22.8 22.4 21.9 21.6 21.3 21.1 20.8 20.6 20.3 20.2 20.1 23.9 26.8 29.6 39.9 44.3 43.6 55.8 59.5 41.7 27.6 25.8 24.8 24.0 23.4 22.9 22.4 22.0 21.7 21.4 21.1 20.9 20.7 20.5 20.3 20.2 20.1 20.0 20.1 20.1 20.1 20.0 20.1 20.1 20.1 20.1 20.1 20.1 20.1 20.0 20.0 20.0 20.0 20.0 20.0 20.0 20.0 20.0 20.0 20.0 20.0 20.0 20.0 20.1 20.1 20.1 20.1 20.1 20.1 20.1 20.1 20.1 20.1 20.1 20.1 20.1 20.1 20.1 20.1 20.1 20.1 20.1 20.1 20.1 20.1 20.1 20.0 20.0 20.0 20.2 20.2 20.2 20.2 20.2 20.2 20.2 20.3 20.3 20.2 20.2 20.2 20.2 20.2 20.2 20.2 20.1 20.1 20.1 20.1 20.1 20.1 20.1 20.1 20.0 20.0 20.3 20.3 20.4 20.4 20.3 20.3 20.3 20.4 20.4 20.4 20.3 20.3 20.3 20.3 20.2 20.2 20.2 20.2 20.2 20.2 20.2 20.2 20.1 20.1 20.0 20.0 20.4 20.4 20.5 20.6 20.5 20.4 20.4 20.5 20.6 20.5 20.4 20.4 20.4 20.4 20.3 20.3 20.3 20.3 20.3 20.3 20.2 20.2 20.2 20.1 20.1 20.0 20.4 20.5 20.6 20.7 20.7 20.6 20.6 20.7 20.7 20.7 20.6 20.5 20.5 20.5 20.5 20.4 20.4 20.4 20.4 20.3 20.3 20.2 20.2 20.1 20.1 20.0 20.5 20.6 20.8 20.9 20.9 20.8 20.8 20.9 20.9 20.8 20.7 20.7 20.6 20.6 20.6 20.6 20.6 20.5 20.5 20.4 20.3 20.3 20.2 20.1 20.1 20.0 20.6 20.7 20.9 21.0 21.0 21.0 21.0 21.1 21.1 21.0 20.9 20.8 20.8 20.7 20.7 20.7 20.7 20.6 20.6 20.5 20.4 20.3 20.2 20.1 20.1 20.0 20.8 20.9 21.0 21.2 21.2 21.2 21.3 21.3 21.3 21.2 21.1 21.0 20.9 20.9 20.9 20.9 20.8 20.7 20.6 20.5 20.4 20.3 20.2 20.1 20.1 20.0 20.9 21.0 21.2 21.3 21.4 21.5 21.5 21.6 21.5 21.4 21.3 21.2 21.1 21.1 21.0 21.0 20.9 20.8 20.7 20.6 20.4 20.3 20.2 20.2 20.1 20.0 21.1 21.2 21.4 21.6 21.7 21.7 21.8 21.9 21.8 21.6 21.5 21.4 21.4 21.3 21.2 21.1 21.0 20.9 20.7 20.6 20.5 20.4 20.3 20.2 20.1 20.0 21.3 21.5 21.6 21.8 21.9 22.0 22.2 22.2 22.1 21.9 21.7 21.7 21.6 21.5 21.4 21.3 21.1 21.0 20.8 20.7 20.5 20.4 20.3 20.2 20.1 20.1 21.5 21.7 21.9 22.1 22.3 22.4 22.6 22.6 22.4 22.2 22.1 22.0 21.9 21.7 21.6 21.4 21.2 21.1 20.9 20.7 20.6 20.5 20.3 20.2 20.1 20.1 21.8 22.0 22.2 22.4 22.7 22.8 23.0 23.1 22.8 22.6 22.5 22.4 22.2 21.9 21.7 21.5 21.3 21.2 21.0 20.8 20.6 20.5 20.4 20.2 20.1 20.1 22.1 22.3 22.6 22.9 23.1 23.4 23.7 23.8 23.4 23.1 23.0 22.8 22.5 22.1 21.9 21.7 21.5 21.3 21.1 20.9 20.7 20.5 20.4 20.2 20.1 20.1 22.5 23.3 23.7 23.6 23.7 24.1 24.6 24.7 24.2 23.8 23.5 23.2 22.7 22.4 22.1 21.9 21.6 21.4 21.2 20.9 20.7 20.5 20.4 20.2 20.1 20.1 23.3 25.3 26.4 25.5 25.1 25.4 26.1 26.1 25.3 24.6 24.1 23.7 23.1 22.7 22.4 22.1 21.8 21.5 21.2 21.0 20.8 20.6 20.4 20.3 20.1 20.1 25.2 28.5 29.9 27.5 25.5 27.2 29.2 28.4 26.6 25.5 24.8 24.2 23.6 23.1 22.6 22.3 21.9 21.6 21.3 21.1 20.9 20.7 20.5 20.3 20.2 20.1 32.2 43.8 45.2 34.9 28.8 34.1 38.6 36.7 32.0 27.4 25.7 24.8 24.1 23.4 22.9 22.5 22.1 21.8 21.5 21.2 21.0 20.8 20.6 20.4 20.2 20.1 55.2 97.7 116.0 83.5 46.8 54.6 67.5 60.7 43.5 30.5 27.0 25.6 24.7 23.9 23.3 22.8 22.4 22.0 21.7 21.4 21.1 20.9 20.6 20.4 20.2 20.1 72.5 148.6 222.1 194.5 97.0 91.5 125.3 95.9 51.8 35.5 29.9 27.0 25.6 24.5 23.8 23.2 22.6 22.2 21.8 21.4 21.1 20.9 20.6 20.4 20.2 20.1 61.1 123.4 229.6 245.8 145.8 150.0 204.8 137.7 56.5 38.2 31.7 28.3 26.5 25.2 24.3 23.5 22.8 22.2 21.8 21.4 21.1 20.8 20.6 20.4 20.2 20.1 50.3 92.7 180.0 202.8 156.2 217.0 293.8 208.6 83.6 38.5 30.7 28.3 26.7 25.5 24.4 23.6 22.8 22.2 21.8 21.4 21.1 20.8 20.6 20.4 20.2 20.1 40.7 70.5 119.3 139.2 135.1 180.1 249.3 229.4 115.4 38.4 29.2 27.3 26.0 25.0 24.1 23.3 22.7 22.2 21.8 21.4 21.1 20.8 20.6 20.4 20.2 20.1 27.9 35.8 49.9 74.4 85.1 83.1 126.2 152.7 89.3 33.3 27.5 26.0 25.0 24.3 23.6 22.9 22.4 22.0 21.6 21.3 21.1 20.8 20.6 20.4 20.2 20.1 23.9 27.0 30.0 39.0 42.8 43.4 65.1 68.7 41.8 27.8 26.2 25.2 24.3 23.6 23.1 22.6 22.1 21.8 21.4 21.2 20.9 20.7 20.5 20.3 20.2 20.1 20.0 20.1 20.1 20.1 20.1 20.1 20.1 20.1 20.1 20.1 20.1 20.1 20.1 20.0 20.0 20.0 20.1 20.1 20.1 20.1 20.0 20.0 20.0 20.0 20.0 20.0 20.1 20.1 20.1 20.1 20.1 20.1 20.1 20.1 20.1 20.1 20.1 20.1 20.1 20.1 20.1 20.1 20.1 20.1 20.1 20.1 20.1 20.1 20.1 20.1 20.0 20.0 20.2 20.2 20.2 20.3 20.2 20.2 20.2 20.3 20.3 20.3 20.2 20.2 20.2 20.2 20.2 20.2 20.2 20.2 20.2 20.2 20.2 20.2 20.1 20.1 20.0 20.0 20.3 20.3 20.4 20.4 20.3 20.3 20.3 20.4 20.4 20.4 20.4 20.3 20.3 20.3 20.3 20.3 20.3 20.3 20.3 20.3 20.2 20.2 20.2 20.1 20.1 20.0 20.3 20.4 20.5 20.5 20.5 20.4 20.5 20.6 20.6 20.6 20.5 20.4 20.4 20.4 20.4 20.4 20.4 20.4 20.4 20.3 20.3 20.3 20.2 20.1 20.1 20.0 20.4 20.5 20.6 20.7 20.7 20.6 20.6 20.7 20.8 20.7 20.6 20.6 20.5 20.5 20.5 20.5 20.5 20.5 20.5 20.4 20.4 20.3 20.2 20.1 20.1 20.0 20.5 20.6 20.7 20.8 20.8 20.8 20.8 20.9 20.9 20.9 20.8 20.7 20.7 20.7 20.7 20.6 20.6 20.6 20.6 20.5 20.4 20.3 20.2 20.2 20.1 20.0 20.7 20.7 20.9 21.0 21.0 21.0 21.0 21.1 21.1 21.1 20.9 20.9 20.9 20.8 20.8 20.8 20.8 20.7 20.7 20.6 20.5 20.4 20.3 20.2 20.1 20.0 20.8 20.9 21.0 21.2 21.2 21.3 21.3 21.3 21.4 21.3 21.1 21.1 21.0 21.0 21.0 20.9 20.9 20.8 20.7 20.6 20.5 20.4 20.3 20.2 20.1 20.0 21.0 21.1 21.2 21.3 21.4 21.5 21.5 21.6 21.6 21.5 21.3 21.3 21.2 21.2 21.1 21.1 21.0 20.9 20.8 20.6 20.5 20.4 20.3 20.2 20.1 20.0 21.2 21.3 21.4 21.6 21.7 21.7 21.8 21.9 21.9 21.7 21.6 21.5 21.5 21.4 21.3 21.2 21.1 21.0 20.8 20.7 20.5 20.4 20.3 20.2 20.1 20.1 21.4 21.5 21.7 21.9 22.0 22.0 22.1 22.2 22.2 22.0 21.8 21.8 21.7 21.6 21.5 21.3 21.2 21.1 20.9 20.7 20.6 20.4 20.3 20.2 20.1 20.1 21.6 21.7 21.9 22.1 22.3 22.4 22.5 22.6 22.5 22.3 22.2 22.1 21.9 21.8 21.6 21.5 21.3 21.1 21.0 20.8 20.6 20.5 20.3 20.2 20.1 20.1 21.8 22.0 22.2 22.4 22.6 22.8 23.0 23.1 22.9 22.7 22.5 22.4 22.2 22.0 21.8 21.6 21.4 21.2 21.0 20.9 20.7 20.5 20.4 20.2 20.1 20.1 22.1 22.4 22.6 22.8 23.0 23.3 23.6 23.7 23.4 23.1 23.0 22.8 22.5 22.2 22.0 21.8 21.6 21.3 21.1 20.9 20.7 20.5 20.4 20.3 20.1 20.1 22.6 23.2 23.4 23.3 23.5 23.9 24.4 24.5 24.2 23.8 23.5 23.2 22.8 22.5 22.2 22.0 21.7 21.4 21.2 20.9 20.7 20.5 20.4 20.3 20.1 20.1 23.6 25.2 25.8 24.9 24.6 24.8 25.5 25.7 25.1 24.5 24.1 23.6 23.2 22.8 22.5 22.1 21.8 21.5 21.2 21.0 20.8 20.6 20.4 20.3 20.1 20.1 27.3 29.8 28.6 25.4 25.6 26.7 27.2 27.2 26.2 25.4 24.7 24.1 23.6 23.1 22.7 22.3 21.9 21.6 21.3 21.1 20.9 20.7 20.5 20.3 20.2 20.1 47.7 54.3 42.5 27.9 29.8 34.5 34.4 34.1 30.9 26.9 25.6 24.8 24.0 23.5 23.0 22.6 22.2 21.8 21.5 21.2 21.0 20.8 20.6 20.4 20.2 20.1 89.9 124.1 100.3 48.4 40.2 51.0 52.8 55.0 43.5 29.8 26.9 25.5 24.6 23.9 23.4 22.9 22.5 22.1 21.7 21.4 21.1 20.8 20.6 20.4 20.2 20.1 121.6 196.3 181.7 88.1 58.7 77.4 82.3 80.1 55.8 36.7 30.5 26.8 25.4 24.5 23.8 23.2 22.7 22.2 21.8 21.5 21.2 20.9 20.6 20.4 20.2 20.1 111.5 179.3 183.9 113.5 107.0 145.8 150.5 121.9 67.0 39.9 32.3 28.0 26.3 25.1 24.1 23.4 22.7 22.2 21.8 21.4 21.1 20.9 20.6 20.4 20.2 20.1 87.8 137.5 144.5 122.4 178.3 239.7 246.8 196.5 92.0 38.2 30.7 28.2 26.5 25.1 24.1 23.3 22.7 22.2 21.8 21.4 21.1 20.8 20.6 20.4 20.2 20.1 60.0 95.7 103.2 108.3 154.2 183.7 214.0 206.3 105.5 37.4 29.3 27.3 25.8 24.7 23.8 23.1 22.6 22.1 21.7 21.4 21.1 20.8 20.6 20.4 20.2 20.1 32.9 42.1 49.7 65.5 70.9 66.3 111.4 131.4 72.7 32.6 27.6 26.1 24.9 24.1 23.4 22.8 22.4 22.0 21.6 21.3 21.1 20.8 20.6 20.4 20.2 20.1 25.0 28.3 30.1 36.0 38.6 39.3 60.3 61.0 35.9 27.5 26.2 25.2 24.4 23.6 23.1 22.6 22.1 21.7 21.4 21.1 20.9 20.8 20.6 20.4 20.2 20.1 20.0 20.1 20.1 20.1 20.1 20.1 20.1 20.1 20.1 20.1 20.1 20.1 20.1 20.1 20.0 20.1 20.1 20.1 20.1 20.1 20.0 20.0 20.1 20.1 20.0 20.0 20.1 20.1 20.1 20.1 20.1 20.1 20.1 20.1 20.1 20.1 20.1 20.1 20.1 20.1 20.1 20.1 20.1 20.1 20.1 20.1 20.1 20.1 20.1 20.1 20.1 20.0 20.2 20.2 20.2 20.3 20.3 20.2 20.2 20.2 20.3 20.3 20.2 20.2 20.2 20.2 20.2 20.2 20.2 20.2 20.2 20.2 20.2 20.2 20.2 20.1 20.1 20.0 20.2 20.3 20.3 20.4 20.4 20.3 20.3 20.4 20.4 20.4 20.4 20.3 20.3 20.3 20.3 20.3 20.3 20.3 20.3 20.3 20.3 20.2 20.2 20.1 20.1 20.0 20.3 20.4 20.5 20.6 20.5 20.5 20.5 20.5 20.6 20.6 20.5 20.4 20.4 20.4 20.4 20.4 20.4 20.4 20.4 20.4 20.4 20.3 20.2 20.1 20.1 20.0 20.4 20.5 20.6 20.7 20.7 20.7 20.6 20.7 20.7 20.7 20.6 20.6 20.6 20.6 20.5 20.5 20.5 20.5 20.5 20.5 20.4 20.4 20.3 20.2 20.1 20.0 20.5 20.6 20.7 20.9 20.9 20.8 20.8 20.9 20.9 20.9 20.8 20.7 20.7 20.7 20.7 20.7 20.7 20.7 20.6 20.6 20.5 20.4 20.3 20.2 20.1 20.1 20.7 20.8 20.9 21.0 21.0 21.0 21.0 21.1 21.1 21.1 21.0 20.9 20.9 20.9 20.9 20.9 20.8 20.8 20.7 20.6 20.5 20.4 20.3 20.2 20.1 20.1 20.9 21.0 21.1 21.2 21.2 21.3 21.3 21.3 21.4 21.3 21.2 21.2 21.1 21.1 21.1 21.0 21.0 20.9 20.8 20.6 20.5 20.4 20.3 20.2 20.1 20.1 21.1 21.1 21.3 21.4 21.4 21.5 21.5 21.6 21.6 21.6 21.4 21.4 21.3 21.3 21.2 21.1 21.0 20.9 20.8 20.7 20.5 20.4 20.3 20.2 20.1 20.1 21.2 21.3 21.5 21.6 21.7 21.7 21.8 21.9 21.9 21.9 21.7 21.6 21.6 21.5 21.4 21.3 21.1 21.0 20.9 20.7 20.6 20.4 20.3 20.2 20.1 20.1 21.4 21.5 21.7 21.9 22.0 22.1 22.1 22.2 22.3 22.2 22.0 21.9 21.8 21.7 21.5 21.4 21.3 21.1 20.9 20.8 20.6 20.5 20.3 20.2 20.1 20.1 21.7 21.8 21.9 22.1 22.3 22.4 22.6 22.6 22.6 22.5 22.3 22.2 22.0 21.9 21.7 21.6 21.4 21.2 21.0 20.8 20.7 20.5 20.4 20.2 20.1 20.1 21.9 22.0 22.2 22.4 22.5 22.8 23.0 23.1 23.0 22.8 22.6 22.5 22.3 22.1 21.9 21.7 21.5 21.3 21.1 20.9 20.7 20.5 20.4 20.2 20.1 20.1 22.2 22.4 22.6 22.7 22.9 23.2 23.5 23.7 23.5 23.2 23.0 22.8 22.6 22.4 22.2 21.9 21.6 21.3 21.1 20.9 20.7 20.5 20.4 20.3 20.1 20.1 22.6 22.9 23.1 23.2 23.4 23.9 24.2 24.3 24.1 23.8 23.5 23.2 22.9 22.7 22.4 22.0 21.7 21.4 21.2 20.9 20.7 20.5 20.4 20.3 20.1 20.1 24.3 24.7 25.0 24.4 24.3 24.6 25.1 25.3 24.9 24.4 24.0 23.6 23.3 22.9 22.6 22.2 21.8 21.5 21.2 21.0 20.8 20.6 20.4 20.3 20.1 20.1 28.5 28.1 26.6 25.5 25.9 25.7 26.2 26.5 25.9 25.3 24.7 24.1 23.7 23.3 22.8 22.4 21.9 21.6 21.3 21.0 20.8 20.6 20.5 20.3 20.2 20.1 52.0 46.9 32.8 27.1 29.3 29.1 30.0 30.8 28.9 26.4 25.5 24.7 24.1 23.6 23.1 22.6 22.1 21.8 21.4 21.2 20.9 20.7 20.5 20.4 20.2 20.1 88.7 90.5 60.1 38.6 40.4 36.3 38.4 45.6 40.6 29.4 26.5 25.4 24.6 24.0 23.5 22.9 22.4 22.0 21.7 21.4 21.1 20.8 20.6 20.4 20.2 20.1 128.9 154.9 108.2 67.5 66.4 53.1 57.9 72.6 61.3 38.0 30.0 26.4 25.4 24.6 23.9 23.2 22.7 22.2 21.9 21.5 21.1 20.8 20.6 20.4 20.2 20.1 134.9 164.9 127.6 113.2 124.8 118.5 129.8 124.4 81.6 42.2 32.0 27.6 26.2 25.1 24.1 23.3 22.7 22.2 21.8 21.5 21.1 20.8 20.6 20.4 20.2 20.1 97.9 127.4 122.9 164.3 207.8 205.7 212.4 184.9 99.3 38.8 30.7 28.0 26.5 25.2 24.0 23.2 22.6 22.1 21.7 21.4 21.1 20.8 20.6 20.3 20.2 20.1 62.5 87.7 92.1 132.9 165.7 152.1 164.5 159.3 86.6 34.9 29.2 27.3 25.8 24.7 23.8 23.0 22.5 22.1 21.7 21.4 21.1 20.9 20.6 20.4 20.2 20.1 39.2 46.9 46.8 58.8 61.3 51.0 73.6 83.0 50.1 30.6 27.4 26.1 25.0 24.2 23.4 22.8 22.3 21.9 21.6 21.3 21.0 20.8 20.6 20.4 20.2 20.1 29.0 34.1 34.0 35.7 35.5 34.0 43.3 43.5 31.9 27.7 26.1 25.2 24.5 23.8 23.2 22.7 22.2 21.8 21.4 21.2 20.9 20.8 20.6 20.4 20.2 20.1 20.1 20.1 20.1 20.1 20.1 20.1 20.1 20.1 20.1 20.1 20.1 20.1 20.1 20.1 20.1 20.1 20.1 20.1 20.1 20.1 20.1 20.1 20.1 20.1 20.1 20.0 20.1 20.1 20.1 20.1 20.1 20.1 20.1 20.1 20.1 20.1 20.1 20.1 20.1 20.1 20.1 20.1 20.1 20.1 20.1 20.1 20.1 20.1 20.1 20.1 20.1 20.0 20.2 20.2 20.2 20.3 20.3 20.2 20.2 20.2 20.2 20.3 20.2 20.2 20.2 20.2 20.2 20.2 20.2 20.2 20.2 20.2 20.2 20.2 20.2 20.2 20.1 20.0 20.3 20.3 20.3 20.4 20.4 20.3 20.3 20.4 20.4 20.4 20.4 20.3 20.3 20.3 20.3 20.3 20.3 20.3 20.3 20.3 20.3 20.3 20.2 20.2 20.1 20.0 20.4 20.4 20.5 20.5 20.5 20.5 20.5 20.5 20.6 20.6 20.5 20.4 20.4 20.4 20.5 20.5 20.5 20.4 20.4 20.4 20.4 20.3 20.2 20.2 20.1 20.0 20.5 20.5 20.6 20.7 20.7 20.7 20.6 20.7 20.7 20.7 20.7 20.6 20.6 20.6 20.6 20.6 20.6 20.6 20.5 20.5 20.5 20.4 20.3 20.2 20.1 20.0 20.6 20.6 20.8 20.9 20.9 20.9 20.8 20.9 20.9 20.9 20.9 20.8 20.7 20.7 20.8 20.8 20.8 20.7 20.6 20.6 20.5 20.4 20.3 20.2 20.1 20.1 20.7 20.8 21.0 21.1 21.1 21.1 21.0 21.1 21.1 21.2 21.2 21.0 21.0 21.0 21.0 20.9 20.9 20.8 20.8 20.7 20.6 20.4 20.3 20.2 20.1 20.1 20.9 21.0 21.2 21.3 21.3 21.3 21.3 21.3 21.4 21.5 21.5 21.3 21.2 21.2 21.1 21.1 21.0 20.9 20.8 20.7 20.6 20.4 20.3 20.2 20.1 20.1 21.1 21.2 21.4 21.5 21.5 21.5 21.5 21.6 21.6 21.7 21.7 21.6 21.4 21.4 21.3 21.2 21.1 21.0 20.9 20.7 20.6 20.4 20.3 20.2 20.1 20.1 21.3 21.4 21.6 21.7 21.7 21.7 21.8 21.9 22.0 22.0 21.9 21.8 21.6 21.5 21.4 21.3 21.2 21.1 20.9 20.8 20.6 20.5 20.3 20.2 20.1 20.1 21.5 21.6 21.7 21.9 22.0 22.1 22.2 22.3 22.3 22.3 22.2 22.0 21.9 21.7 21.6 21.4 21.3 21.2 21.0 20.8 20.6 20.5 20.4 20.2 20.1 20.1 21.8 21.9 22.0 22.1 22.2 22.4 22.6 22.7 22.8 22.7 22.5 22.2 22.1 21.9 21.7 21.6 21.5 21.3 21.1 20.9 20.7 20.5 20.4 20.2 20.1 20.1 22.1 22.1 22.2 22.4 22.5 22.7 23.0 23.2 23.2 23.1 22.8 22.5 22.3 22.1 22.0 21.8 21.6 21.4 21.1 20.9 20.7 20.5 20.4 20.2 20.1 20.1 22.3 22.4 22.6 22.7 22.9 23.2 23.5 23.7 23.6 23.4 23.1 22.8 22.6 22.4 22.2 21.9 21.6 21.4 21.1 20.9 20.7 20.5 20.4 20.2 20.1 20.1 22.7 22.8 22.9 23.2 23.4 23.8 24.1 24.3 24.2 23.8 23.5 23.2 23.0 22.8 22.4 22.1 21.7 21.4 21.2 20.9 20.7 20.5 20.4 20.2 20.1 20.1 25.0 24.0 24.0 24.0 24.1 24.4 24.9 25.1 24.8 24.4 23.9 23.6 23.4 23.1 22.7 22.2 21.8 21.5 21.2 21.0 20.7 20.5 20.4 20.3 20.1 20.1 29.3 26.0 25.9 26.1 25.4 25.3 25.8 26.1 25.6 25.1 24.6 24.1 23.7 23.4 22.9 22.4 21.9 21.6 21.4 21.1 20.8 20.6 20.4 20.3 20.2 20.1 42.7 33.1 29.0 29.5 27.8 27.0 27.9 28.4 27.4 26.1 25.3 24.7 24.2 23.7 23.1 22.6 22.1 21.9 21.6 21.3 20.9 20.7 20.