<?xml version="1.0"?>
<VTKFile type="ImageData" version="1.0" byte_order="LittleEndian" header_type="UInt64">
<ImageData WholeExtent="25 50 0 25 0 15"
 Origin="15.0000 0.0000 0.0000" Spacing="0.6000 0.6000 0.6000">
<Piece Extent="25 50 0 25 0 15">
<PointData>
<DataArray Name="TEMPERATURE" NumberOfComponents="1" type="Float32" format="ascii">
20.1 20.1 20.2 20.2 20.2 20.2 20.2 20.2 20.2 20.2 20.2 20.1 20.1 20.1 20.1 20.1 20.1 20.1 20.1 20.1 20.1 20.1 20.1 20.1 20.1 20.0 20.1 20.2 20.2 20.2 20.2 20.2 20.2 20.2 20.2 20.2 20.2 20.2 20.1 20.1 20.1 20.1 20.1 20.1 20.1 20.1 20.1 20.1 20.1 20.1 20.1 20.1 20.2 20.2 20.2 20.2 20.2 20.2 20.2 20.2 20.3 20.3 20.2 20.2 20.2 20.2 20.2 20.1 20.1 20.1 20.1 20.1 20.1 20.1 20.1 20.1 20.1 20.1 20.2 20.2 20.2 20.3 20.3 20.3 20.3 20.3 20.3 20.3 20.3 20.2 20.2 20.2 20.2 20.2 20.2 20.1 20.1 20.1 20.1 20.1 20.1 20.1 20.1 20.1 20.2 20.3 20.3 20.3 20.3 20.3 20.3 20.4 20.4 20.4 20.3 20.3 20.2 20.2 20.2 20.2 20.2 20.2 20.2 20.1 20.1 20.1 20.1 20.1 20.1 20.1 20.2 20.3 20.3 20.4 20.4 20.4 20.4 20.4 20.4 20.4 20.4 20.3 20.3 20.3 20.2 20.2 20.2 20.2 20.2 20.2 20.1 20.1 20.1 20.1 20.1 20.1 20.3 20.3 20.4 20.4 20.5 20.5 20.5 20.5 20.5 20.5 20.4 20.4 20.3 20.3 20.3 20.3 20.2 20.2 20.2 20.2 20.2 20.1 20.1 20.1 20.1 20.1 20.3 20.4 20.4 20.5 20.5 20.6 20.6 20.6 20.6 20.5 20.5 20.4 20.4 20.4 20.3 20.3 20.3 20.2 20.2 20.2 20.2 20.2 20.1 20.1 20.1 20.1 20.4 20.5 20.5 20.6 20.6 20.7 20.7 20.7 20.7 20.6 20.6 20.5 20.4 20.4 20.4 20.3 20.3 20.3 20.2 20.2 20.2 20.2 20.2 20.1 20.1 20.1 20.4 20.5 20.6 20.7 20.7 20.8 20.9 20.9 20.8 20.7 20.6 20.6 20.5 20.5 20.4 20.4 20.4 20.3 20.3 20.3 20.2 20.2 20.2 20.2 20.1 20.1 20.5 20.6 20.7 20.8 20.9 21.0 21.0 21.0 21.0 20.9 20.7 20.7 20.6 20.5 20.5 20.4 20.4 20.4 20.3 20.3 20.3 20.2 20.2 20.2 20.1 20.1 20.6 20.7 20.8 20.9 21.0 21.2 21.3 21.2 21.1 21.0 20.9 20.8 20.7 20.6 20.6 20.5 20.5 20.4 20.4 20.3 20.3 20.2 20.2 20.2 20.2 20.1 20.7 20.8 21.0 21.1 21.2 21.4 21.5 21.5 21.3 21.2 21.0 20.9 20.8 20.7 20.7 20.6 20.5 20.5 20.4 20.4 20.3 20.3 20.2 20.2 20.2 20.1 20.8 21.0 21.1 21.3 21.5 21.7 21.9 21.8 21.6 21.4 21.2 21.1 20.9 20.8 20.7 20.7 20.6 20.5 20.4 20.4 20.3 20.3 20.3 20.2 20.2 20.1 20.9 21.1 21.3 21.5 21.8 22.1 22.3 22.2 21.9 21.6 21.4 21.2 21.1 21.0 20.8 20.7 20.6 20.6 20.5 20.4 20.4 20.3 20.3 20.2 20.2 20.1 21.0 21.3 21.6 21.8 22.1 22.6 22.9 22.6 22.2 21.9 21.6 21.4 21.3 21.1 21.0 20.8 20.7 20.6 20.5 20.5 20.4 20.3 20.3 20.3 20.2 20.2 21.2 21.5 21.8 22.2 22.6 23.1 23.5 23.2 22.6 22.2 21.9 21.7 21.4 21.3 21.1 20.9 20.8 20.7 20.6 20.5 20.4 20.4 20.3 20.3 20.2 20.2 21.4 21.7 22.2 22.7 23.3 24.1 24.4 23.9 23.1 22.6 22.3 21.9 21.7 21.4 21.2 21.0 20.9 20.8 20.7 20.6 20.5 20.4 20.4 20.3 20.2 20.2 21.6 22.0 22.5 23.7 24.8 25.5 26.0 25.1 23.7 23.1 22.7 22.3 21.9 21.6 21.4 21.2 21.0 20.9 20.8 20.6 20.6 20.5 20.4 20.4 20.3 20.2 22.0 22.4 23.1 25.8 30.0 30.9 29.7 27.5 24.8 23.9 23.3 22.7 22.3 21.9 21.6 21.4 21.2 21.0 20.8 20.7 20.6 20.5 20.5 20.4 20.3 20.2 22.5 23.1 24.2 28.1 33.3 35.3 32.5 29.9 27.2 25.3 24.3 23.4 22.8 22.3 21.9 21.6 21.3 21.1 20.9 20.8 20.6 20.5 20.5 20.4 20.3 20.2 23.1 24.2 25.9 30.2 33.3 20.0 20.0 31.7 29.4 26.4 25.2 24.1 23.3 22.7 22.2 21.8 21.5 21.2 21.0 20.8 20.7 20.5 20.4 20.4 20.3 20.2 23.1 24.4 26.4 33.9 39.9 20.0 20.0 30.5 28.5 25.9 25.0 24.1 23.2 22.6 22.1 21.8 21.5 21.2 21.0 20.8 20.7 20.6 20.5 20.4 20.3 20.2 22.3 23.1 24.7 30.9 34.3 30.6 29.4 27.7 26.1 24.5 23.9 23.2 22.6 22.2 21.8 21.6 21.3 21.1 20.9 20.8 20.7 20.6 20.5 20.4 20.3 20.2 21.6 22.0 22.7 24.1 26.5 28.0 27.3 25.6 24.1 23.2 22.7 22.3 22.0 21.7 21.5 21.3 21.1 21.0 20.8 20.7 20.6 20.5 20.5 20.4 20.3 20.2 21.0 21.7 22.1 22.6 23.7 24.8 24.7 23.7 23.0 22.5 22.1 21.8 21.5 21.3 21.1 21.0 20.9 20.7 20.7 20.6 20.5 20.4 20.4 20.3 20.3 20.2 20.1 20.1 20.1 20.2 20.2 20.1 20.1 20.2 20.2 20.2 20.2 20.1 20.1 20.1 20.1 20.1 20.1 20.1 20.1 20.1 20.1 20.1 20.1 20.0 20.0 20.0 20.1 20.1 20.2 20.2 20.2 20.2 20.2 20.2 20.2 20.2 20.2 20.2 20.1 20.1 20.1 20.1 20.1 20.1 20.1 20.1 20.1 20.1 20.1 20.1 20.0 20.0 20.1 20.2 20.2 20.2 20.2 20.2 20.2 20.2 20.2 20.2 20.2 20.2 20.2 20.1 20.1 20.1 20.1 20.1 20.1 20.1 20.1 20.1 20.1 20.1 20.1 20.0 20.2 20.2 20.2 20.2 20.3 20.3 20.3 20.3 20.3 20.3 20.3 20.2 20.2 20.2 20.2 20.2 20.1 20.1 20.1 20.1 20.1 20.1 20.1 20.1 20.1 20.1 20.2 20.2 20.3 20.3 20.3 20.3 20.3 20.3 20.3 20.3 20.3 20.3 20.2 20.2 20.2 20.2 20.2 20.1 20.1 20.1 20.1 20.1 20.1 20.1 20.1 20.1 20.2 20.3 20.3 20.3 20.4 20.4 20.4 20.4 20.4 20.4 20.3 20.3 20.3 20.2 20.2 20.2 20.2 20.2 20.2 20.1 20.1 20.1 20.1 20.1 20.1 20.1 20.3 20.3 20.4 20.4 20.4 20.5 20.5 20.5 20.5 20.5 20.4 20.3 20.3 20.3 20.3 20.2 20.2 20.2 20.2 20.2 20.1 20.1 20.1 20.1 20.1 20.1 20.3 20.4 20.4 20.5 20.5 20.6 20.6 20.6 20.6 20.5 20.5 20.4 20.4 20.3 20.3 20.3 20.3 20.2 20.2 20.2 20.2 20.1 20.1 20.1 20.1 20.1 20.4 20.4 20.5 20.6 20.6 20.7 20.7 20.7 20.7 20.6 20.5 20.5 20.4 20.4 20.4 20.3 20.3 20.3 20.2 20.2 20.2 20.2 20.1 20.1 20.1 20.1 20.4 20.5 20.6 20.7 20.8 20.8 20.9 20.9 20.8 20.7 20.6 20.6 20.5 20.5 20.4 20.4 20.3 20.3 20.3 20.2 20.2 20.2 20.2 20.1 20.1 20.1 20.5 20.6 20.7 20.8 20.9 21.0 21.1 21.1 21.0 20.9 20.8 20.7 20.6 20.5 20.5 20.4 20.4 20.3 20.3 20.3 20.2 20.2 20.2 20.2 20.1 20.1 20.6 20.7 20.9 21.0 21.1 21.3 21.4 21.3 21.2 21.0 20.9 20.8 20.7 20.6 20.6 20.5 20.4 20.4 20.3 20.3 20.3 20.2 20.2 20.2 20.1 20.1 20.7 20.9 21.0 21.2 21.3 21.6 21.7 21.6 21.4 21.2 21.1 20.9 20.8 20.7 20.7 20.6 20.5 20.4 20.4 20.3 20.3 20.3 20.2 20.2 20.2 20.1 20.8 21.0 21.2 21.4 21.6 21.9 22.1 22.0 21.7 21.5 21.3 21.1 21.0 20.9 20.8 20.7 20.6 20.5 20.4 20.4 20.3 20.3 20.2 20.2 20.2 20.1 20.9 21.2 21.5 21.7 22.0 22.4 22.7 22.5 22.1 21.8 21.5 21.3 21.1 21.0 20.9 20.8 20.6 20.6 20.5 20.4 20.4 20.3 20.3 20.2 20.2 20.1 21.1 21.4 21.7 22.1 22.5 23.0 23.3 23.1 22.5 22.1 21.8 21.6 21.3 21.2 21.0 20.9 20.7 20.6 20.5 20.4 20.4 20.3 20.3 20.2 20.2 20.1 21.3 21.6 22.1 22.5 23.0 23.8 24.3 23.8 23.1 22.5 22.1 21.8 21.6 21.3 21.1 21.0 20.8 20.7 20.6 20.5 20.4 20.4 20.3 20.3 20.2 20.2 21.5 21.9 22.5 23.7 24.6 25.2 25.8 25.0 23.8 23.1 22.6 22.2 21.8 21.5 21.3 21.1 20.9 20.8 20.7 20.6 20.5 20.4 20.4 20.3 20.2 20.2 21.8 22.3 23.1 27.8 31.1 29.5 28.2 26.6 24.7 23.7 23.1 22.6 22.2 21.8 21.5 21.3 21.1 20.9 20.8 20.6 20.5 20.5 20.4 20.3 20.3 20.2 22.2 22.7 24.3 32.7 48.6 48.8 35.7 29.5 26.7 24.9 23.8 23.1 22.6 22.1 21.8 21.5 21.2 21.0 20.9 20.7 20.6 20.5 20.4 20.4 20.3 20.2 23.0 23.8 25.9 34.6 95.7 169.6 110.3 40.8 32.3 27.8 25.0 24.0 23.2 22.6 22.1 21.7 21.4 21.2 21.0 20.8 20.6 20.5 20.4 20.4 20.3 20.2 24.0 25.5 27.8 36.8 147.8 395.3 295.9 84.0 40.1 29.6 26.0 24.8 23.8 23.1 22.4 22.0 21.6 21.3 21.0 20.8 20.7 20.5 20.4 20.4 20.2 20.2 24.6 26.0 28.6 38.6 110.5 312.5 303.8 105.4 38.7 27.8 25.7 24.6 23.7 23.0 22.4 21.9 21.6 21.3 21.0 20.8 20.7 20.5 20.4 20.4 20.3 20.2 23.5 24.3 26.2 32.9 48.1 98.0 114.2 60.0 30.4 25.4 24.3 23.6 23.0 22.5 22.0 21.7 21.4 21.2 21.0 20.8 20.7 20.6 20.5 20.4 20.3 20.2 21.9 22.5 23.5 25.5 29.6 33.8 33.3 29.4 25.6 23.8 23.2 22.7 22.3 21.9 21.6 21.4 21.2 21.0 20.8 20.7 20.6 20.5 20.4 20.4 20.3 20.2 21.2 21.9 22.5 23.3 24.7 25.9 25.9 24.8 23.6 22.9 22.4 22.1 21.7 21.5 21.2 21.1 20.9 20.8 20.7 20.6 20.5 20.4 20.4 20.3 20.2 20.2 20.1 20.1 20.1 20.1 20.1 20.1 20.1 20.1 20.1 20.1 20.1 20.1 20.1 20.1 20.1 20.1 20.1 20.1 20.1 20.1 20.1 20.0 20.0 20.0 20.0 20.0 20.1 20.1 20.1 20.2 20.2 20.2 20.2 20.2 20.2 20.2 20.2 20.1 20.1 20.1 20.1 20.1 20.1 20.1 20.1 20.1 20.1 20.0 20.0 20.0 20.0 20.0 20.1 20.1 20.2 20.2 20.2 20.2 20.2 20.2 20.2 20.2 20.2 20.2 20.1 20.1 20.1 20.1 20.1 20.1 20.1 20.1 20.1 20.1 20.1 20.0 20.0 20.0 20.1 20.2 20.2 20.2 20.2 20.2 20.2 20.3 20.3 20.3 20.2 20.2 20.2 20.1 20.1 20.1 20.1 20.1 20.1 20.1 20.1 20.1 20.1 20.1 20.0 20.0 20.2 20.2 20.2 20.3 20.3 20.3 20.3 20.3 20.3 20.3 20.3 20.2 20.2 20.2 20.2 20.1 20.1 20.1 20.1 20.1 20.1 20.1 20.1 20.1 20.1 20.0 20.2 20.2 20.3 20.3 20.3 20.4 20.4 20.4 20.4 20.4 20.3 20.3 20.2 20.2 20.2 20.2 20.2 20.1 20.1 20.1 20.1 20.1 20.1 20.1 20.1 20.1 20.2 20.3 20.3 20.4 20.4 20.5 20.5 20.5 20.5 20.4 20.4 20.3 20.3 20.3 20.2 20.2 20.2 20.2 20.1 20.1 20.1 20.1 20.1 20.1 20.1 20.1 20.3 20.4 20.4 20.5 20.5 20.6 20.6 20.6 20.6 20.5 20.4 20.4 20.3 20.3 20.3 20.2 20.2 20.2 20.2 20.2 20.1 20.1 20.1 20.1 20.1 20.1 20.3 20.4 20.5 20.6 20.6 20.7 20.7 20.8 20.7 20.6 20.5 20.5 20.4 20.4 20.3 20.3 20.3 20.2 20.2 20.2 20.2 20.1 20.1 20.1 20.1 20.1 20.4 20.5 20.6 20.7 20.8 20.9 20.9 20.9 20.9 20.7 20.6 20.6 20.5 20.4 20.4 20.3 20.3 20.3 20.2 20.2 20.2 20.2 20.1 20.1 20.1 20.1 20.5 20.6 20.7 20.8 21.0 21.1 21.2 21.2 21.0 20.9 20.8 20.7 20.6 20.5 20.5 20.4 20.4 20.3 20.3 20.2 20.2 20.2 20.1 20.1 20.1 20.1 20.6 20.7 20.9 21.0 21.2 21.4 21.5 21.4 21.3 21.1 20.9 20.8 20.7 20.6 20.5 20.5 20.4 20.4 20.3 20.3 20.2 20.2 20.2 20.1 20.1 20.1 20.7 20.9 21.1 21.2 21.5 21.7 21.9 21.8 21.6 21.3 21.1 21.0 20.8 20.7 20.6 20.6 20.5 20.4 20.4 20.3 20.3 20.2 20.2 20.2 20.1 20.1 20.8 21.1 21.3 21.5 21.8 22.2 22.4 22.3 21.9 21.6 21.4 21.2 21.0 20.9 20.8 20.7 20.6 20.5 20.4 20.3 20.3 20.2 20.2 20.2 20.1 20.1 21.0 21.3 21.6 21.9 22.3 22.8 23.1 22.9 22.4 22.0 21.7 21.4 21.2 21.0 20.9 20.8 20.6 20.5 20.5 20.4 20.3 20.3 20.2 20.2 20.1 20.1 21.2 21.5 21.9 22.3 22.9 23.6 24.0 23.7 23.0 22.4 22.0 21.7 21.5 21.2 21.0 20.9 20.7 20.6 20.5 20.4 20.4 20.3 20.2 20.2 20.2 20.1 21.4 21.8 22.3 22.9 23.6 25.1 27.5 26.7 23.8 23.0 22.5 22.1 21.7 21.5 21.2 21.0 20.8 20.7 20.6 20.5 20.4 20.3 20.3 20.2 20.2 20.1 21.7 22.2 23.0 24.9 26.2 27.8 33.1 33.2 27.1 23.8 23.0 22.5 22.1 21.7 21.4 21.2 21.0 20.8 20.7 20.5 20.5 20.4 20.3 20.3 20.2 20.2 22.0 22.9 26.5 35.8 41.8 38.9 37.2 36.1 29.8 24.7 23.7 23.1 22.5 22.0 21.7 21.4 21.1 20.9 20.8 20.6 20.5 20.4 20.4 20.3 20.2 20.2 22.9 23.9 30.3 55.3 96.3 88.6 50.4 43.5 39.4 29.3 24.9 23.8 23.1 22.5 22.0 21.6 21.3 21.1 20.9 20.7 20.6 20.5 20.4 20.3 20.2 20.2 25.3 27.0 33.4 70.2 189.0 259.7 181.3 106.6 80.4 49.2 28.8 25.0 23.9 23.1 22.4 21.9 21.5 21.2 21.0 20.8 20.6 20.5 20.4 20.3 20.2 20.2 27.8 29.9 37.2 83.4 254.4 410.5 348.5 189.9 96.1 53.6 30.5 26.0 24.7 23.7 22.8 22.2 21.7 21.4 21.1 20.8 20.7 20.5 20.4 20.3 20.2 20.2 27.7 29.7 37.8 87.2 214.3 356.9 354.6 192.3 67.1 36.7 28.0 25.7 24.5 23.6 22.8 22.2 21.7 21.4 21.1 20.9 20.7 20.5 20.4 20.3 20.2 20.2 25.3 27.2 32.6 60.7 108.6 182.7 193.2 103.6 41.7 28.5 25.8 24.4 23.6 22.9 22.3 21.9 21.5 21.2 21.0 20.8 20.7 20.5 20.4 20.4 20.3 20.2 22.7 23.9 26.5 34.3 44.3 56.5 51.9 34.5 27.5 24.9 24.0 23.2 22.7 22.2 21.8 21.5 21.3 21.0 20.9 20.7 20.6 20.5 20.4 20.3 20.3 20.2 21.4 22.3 24.0 27.0 28.5 28.4 28.1 26.5 24.6 23.6 23.0 22.4 22.0 21.7 21.4 21.1 21.0 20.8 20.7 20.6 20.5 20.4 20.3 20.3 20.2 20.2 20.1 20.1 20.1 20.1 20.1 20.1 20.1 20.2 20.2 20.2 20.1 20.1 20.1 20.1 20.1 20.1 20.1 20.1 20.1 20.1 20.0 20.0 20.0 20.0 20.0 20.0 20.1 20.1 20.1 20.2 20.2 20.2 20.2 20.2 20.2 20.2 20.2 20.1 20.1 20.1 20.1 20.1 20.1 20.1 20.1 20.1 20.1 20.0 20.0 20.0 20.0 20.0 20.1 20.1 20.2 20.2 20.2 20.2 20.2 20.2 20.2 20.2 20.2 20.2 20.1 20.1 20.1 20.1 20.1 20.1 20.1 20.1 20.1 20.1 20.0 20.0 20.0 20.0 20.1 20.2 20.2 20.2 20.2 20.2 20.3 20.3 20.3 20.3 20.2 20.2 20.2 20.1 20.1 20.1 20.1 20.1 20.1 20.1 20.1 20.1 20.1 20.0 20.0 20.0 20.2 20.2 20.2 20.3 20.3 20.3 20.3 20.3 20.3 20.3 20.3 20.2 20.2 20.2 20.2 20.1 20.1 20.1 20.1 20.1 20.1 20.1 20.1 20.1 20.0 20.0 20.2 20.3 20.3 20.3 20.4 20.4 20.4 20.4 20.4 20.4 20.3 20.3 20.2 20.2 20.2 20.2 20.2 20.1 20.1 20.1 20.1 20.1 20.1 20.1 20.1 20.0 20.2 20.3 20.3 20.4 20.4 20.5 20.5 20.5 20.5 20.4 20.4 20.3 20.3 20.3 20.2 20.2 20.2 20.2 20.1 20.1 20.1 20.1 20.1 20.1 20.1 20.1 20.3 20.4 20.4 20.5 20.5 20.6 20.6 20.6 20.6 20.5 20.5 20.4 20.3 20.3 20.3 20.2 20.2 20.2 20.2 20.1 20.1 20.1 20.1 20.1 20.1 20.1 20.3 20.4 20.5 20.6 20.6 20.7 20.7 20.8 20.7 20.6 20.5 20.5 20.4 20.4 20.3 20.3 20.3 20.2 20.2 20.2 20.1 20.1 20.1 20.1 20.1 20.1 20.4 20.5 20.6 20.7 20.8 20.8 20.9 20.9 20.9 20.8 20.6 20.6 20.5 20.4 20.4 20.3 20.3 20.3 20.2 20.2 20.2 20.1 20.1 20.1 20.1 20.1 20.5 20.6 20.7 20.8 20.9 21.0 21.1 21.2 21.1 20.9 20.8 20.7 20.6 20.5 20.5 20.4 20.4 20.3 20.3 20.2 20.2 20.2 20.1 20.1 20.1 20.1 20.6 20.7 20.8 21.0 21.1 21.3 21.4 21.5 21.3 21.1 20.9 20.8 20.7 20.6 20.5 20.5 20.4 20.4 20.3 20.3 20.2 20.2 20.2 20.1 20.1 20.1 20.7 20.8 21.0 21.2 21.4 21.6 21.8 21.8 21.6 21.3 21.1 21.0 20.8 20.7 20.6 20.6 20.5 20.4 20.4 20.3 20.3 20.2 20.2 20.2 20.1 20.1 20.8 21.0 21.2 21.5 21.7 22.0 22.3 22.3 21.9 21.6 21.4 21.2 21.0 20.9 20.8 20.7 20.6 20.5 20.4 20.3 20.3 20.2 20.2 20.2 20.1 20.1 20.9 21.2 21.5 21.8 22.1 22.5 22.9 22.9 22.4 22.0 21.7 21.4 21.2 21.1 20.9 20.8 20.7 20.6 20.5 20.4 20.3 20.3 20.2 20.2 20.1 20.1 21.1 21.4 21.8 22.2 22.7 23.2 23.9 23.8 23.0 22.4 22.0 21.7 21.5 21.3 21.1 20.9 20.7 20.6 20.5 20.4 20.4 20.3 20.2 20.2 20.2 20.1 21.3 21.7 22.3 22.9 23.6 25.5 29.5 28.5 24.1 23.0 22.5 22.1 21.8 21.5 21.2 21.0 20.9 20.7 20.6 20.5 20.4 20.3 20.3 20.2 20.2 20.1 21.6 22.2 24.3 25.9 26.1 34.3 46.4 42.7 29.8 24.1 23.1 22.6 22.1 21.8 21.4 21.2 21.0 20.8 20.7 20.6 20.5 20.4 20.3 20.3 20.2 20.2 22.6 25.6 32.8 38.1 43.1 52.9 59.7 52.2 35.1 25.6 23.9 23.2 22.6 22.1 21.7 21.4 21.1 20.9 20.8 20.6 20.5 20.4 20.4 20.3 20.2 20.2 25.7 29.0 43.6 77.3 126.0 115.7 74.2 64.7 48.4 31.7 25.5 24.0 23.2 22.6 22.1 21.7 21.4 21.1 20.9 20.7 20.6 20.5 20.4 20.3 20.2 20.2 32.7 34.9 60.1 142.0 260.3 275.9 216.5 172.9 114.9 60.1 31.2 25.5 24.2 23.3 22.5 22.0 21.6 21.3 21.0 20.8 20.6 20.5 20.4 20.3 20.2 20.2 39.1 44.2 82.7 197.5 346.1 411.5 391.3 291.1 164.5 82.7 36.8 26.8 25.1 23.9 23.0 22.3 21.8 21.4 21.1 20.9 20.7 20.5 20.4 20.3 20.2 20.2 38.5 46.7 92.0 207.9 322.8 376.4 374.4 260.5 124.2 61.3 33.6 26.5 24.9 23.8 22.9 22.3 21.8 21.4 21.1 20.9 20.7 20.5 20.4 20.3 20.2 20.2 31.8 38.1 65.7 138.9 192.5 211.3 197.2 126.0 61.2 33.9 27.4 24.9 23.9 23.0 22.4 21.9 21.6 21.3 21.0 20.8 20.7 20.6 20.4 20.4 20.3 20.2 24.8 27.4 34.9 60.1 73.2 70.8 57.3 37.9 30.9 25.9 24.4 23.5 22.9 22.3 21.9 21.6 21.3 21.1 20.9 20.7 20.6 20.5 20.4 20.4 20.3 20.2 21.5 23.0 27.0 33.8 34.0 30.0 29.2 28.2 25.9 23.8 23.1 22.6 22.1 21.7 21.4 21.2 21.0 20.8 20.7 20.6 20.5 20.4 20.3 20.3 20.2 20.2 20.1 20.1 20.1 20.2 20.2 20.2 20.2 20.2 20.2 20.2 20.2 20.1 20.1 20.1 20.1 20.1 20.1 20.1 20.1 20.1 20.1 20.0 20.0 20.0 20.0 20.0 20.1 20.1 20.2 20.2 20.2 20.2 20.2 20.2 20.2 20.2 20.2 20.2 20.1 20.1 20.1 20.1 20.1 20.1 20.1 20.1 20.1 20.1 20.0 20.0 20.0 20.0 20.1 20.2 20.2 20.2 20.2 20.2 20.2 20.2 20.3 20.3 20.2 20.2 20.2 20.1 20.1 20.1 20.1 20.1 20.1 20.1 20.1 20.1 20.1 20.0 20.0 20.0 20.2 20.2 20.2 20.3 20.3 20.3 20.3 20.3 20.3 20.3 20.3 20.2 20.2 20.2 20.2 20.1 20.1 20.1 20.1 20.1 20.1 20.1 20.1 20.1 20.0 20.0 20.2 20.2 20.3 20.3 20.3 20.3 20.3 20.4 20.4 20.4 20.3 20.3 20.2 20.2 20.2 20.2 20.2 20.1 20.1 20.1 20.1 20.1 20.1 20.1 20.1 20.0 20.2 20.3 20.3 20.3 20.4 20.4 20.4 20.4 20.4 20.4 20.4 20.3 20.3 20.2 20.2 20.2 20.2 20.2 20.1 20.1 20.1 20.1 20.1 20.1 20.1 20.1 20.3 20.3 20.4 20.4 20.4 20.5 20.5 20.5 20.5 20.5 20.4 20.3 20.3 20.3 20.3 20.2 20.2 20.2 20.2 20.1 20.1 20.1 20.1 20.1 20.1 20.1 20.3 20.4 20.4 20.5 20.5 20.5 20.6 20.6 20.6 20.6 20.5 20.4 20.4 20.3 20.3 20.3 20.2 20.2 20.2 20.2 20.1 20.1 20.1 20.1 20.1 20.1 20.4 20.4 20.5 20.6 20.6 20.7 20.7 20.8 20.7 20.6 20.6 20.5 20.4 20.4 20.4 20.3 20.3 20.2 20.2 20.2 20.2 20.1 20.1 20.1 20.1 20.1 20.4 20.5 20.6 20.7 20.7 20.8 20.9 20.9 20.9 20.8 20.6 20.6 20.5 20.5 20.4 20.4 20.3 20.3 20.3 20.2 20.2 20.2 20.1 20.1 20.1 20.1 20.5 20.6 20.7 20.8 20.9 20.9 21.0 21.1 21.0 20.9 20.8 20.7 20.6 20.5 20.5 20.4 20.4 20.3 20.3 20.3 20.2 20.2 20.2 20.1 20.1 20.1 20.5 20.7 20.8 20.9 21.0 21.1 21.3 21.3 21.2 21.0 20.9 20.8 20.7 20.6 20.6 20.5 20.4 20.4 20.3 20.3 20.3 20.2 20.2 20.2 20.1 20.1 20.6 20.8 20.9 21.1 21.2 21.3 21.5 21.6 21.5 21.2 21.1 20.9 20.8 20.7 20.7 20.6 20.5 20.4 20.4 20.3 20.3 20.2 20.2 20.2 20.1 20.1 20.7 20.9 21.1 21.3 21.4 21.6 21.9 22.0 21.8 21.5 21.3 21.1 21.0 20.9 20.8 20.7 20.6 20.5 20.4 20.4 20.3 20.3 20.2 20.2 20.2 20.1 20.8 21.0 21.3 21.5 21.7 21.9 22.4 22.6 22.2 21.8 21.5 21.3 21.2 21.0 20.9 20.8 20.7 20.6 20.5 20.4 20.4 20.3 20.2 20.2 20.2 20.1 21.0 21.2 21.5 21.8 22.0 22.3 23.1 23.4 22.8 22.2 21.9 21.6 21.4 21.2 21.0 20.9 20.8 20.6 20.5 20.5 20.4 20.3 20.3 20.2 20.2 20.1 21.3 21.6 22.2 22.6 22.8 24.2 27.7 27.4 23.9 22.8 22.3 21.9 21.7 21.4 21.2 21.0 20.9 20.7 20.6 20.5 20.4 20.4 20.3 20.2 20.2 20.2 23.0 23.4 25.3 25.5 24.3 34.2 46.4 41.4 29.6 23.9 22.8 22.4 22.0 21.7 21.4 21.2 21.0 20.8 20.7 20.6 20.5 20.4 20.3 20.3 20.2 20.2 25.8 30.7 35.8 34.3 33.1 51.0 68.2 57.5 38.0 26.7 23.7 22.9 22.4 22.0 21.6 21.4 21.1 20.9 20.8 20.7 20.6 20.5 20.4 20.3 20.3 20.2 32.6 43.6 62.6 87.1 93.6 87.1 88.0 72.9 46.3 30.6 25.3 23.7 23.0 22.4 22.0 21.6 21.3 21.1 20.9 20.8 20.6 20.5 20.4 20.4 20.3 20.2 45.8 67.1 121.9 206.2 210.2 183.7 198.0 160.2 88.4 43.6 29.2 25.1 23.9 23.1 22.4 21.9 21.5 21.2 21.0 20.8 20.7 20.5 20.4 20.4 20.3 20.2 60.6 96.3 184.6 305.7 290.3 283.3 350.1 284.2 163.8 76.7 35.7 26.4 24.8 23.7 22.8 22.2 21.7 21.4 21.1 20.9 20.7 20.6 20.4 20.4 20.3 20.2 59.2 99.7 200.7 317.8 277.9 249.9 310.0 253.6 148.0 70.2 34.3 26.1 24.6 23.6 22.7 22.2 21.7 21.4 21.1 20.9 20.7 20.6 20.5 20.4 20.3 20.2 41.4 70.0 144.2 230.6 197.2 135.7 138.0 114.0 68.3 34.9 27.1 24.6 23.6 22.9 22.3 21.9 21.5 21.2 21.0 20.9 20.7 20.6 20.5 20.4 20.3 20.2 27.6 40.5 72.3 115.2 103.7 61.5 45.9 42.0 35.7 26.1 24.0 23.2 22.7 22.2 21.8 21.5 21.3 21.1 20.9 20.8 20.6 20.5 20.5 20.4 20.3 20.2 22.0 27.3 39.5 51.8 45.2 31.3 28.5 28.8 26.4 23.6 22.9 22.4 22.0 21.7 21.4 21.2 21.0 20.8 20.7 20.6 20.5 20.4 20.4 20.3 20.2 20.2 20.1 20.1 20.2 20.2 20.2 20.2 20.2 20.2 20.2 20.2 20.2 20.2 20.1 20.1 20.1 20.1 20.1 20.1 20.1 20.1 20.1 20.1 20.1 20.0 20.0 20.0 20.1 20.2 20.2 20.2 20.2 20.2 20.2 20.2 20.2 20.2 20.2 20.2 20.1 20.1 20.1 20.1 20.1 20.1 20.1 20.1 20.1 20.1 20.1 20.1 20.0 20.0 20.2 20.2 20.2 20.2 20.2 20.2 20.2 20.3 20.3 20.3 20.2 20.2 20.2 20.2 20.1 20.1 20.1 20.1 20.1 20.1 20.1 20.1 20.1 20.1 20.1 20.1 20.2 20.2 20.2 20.3 20.3 20.3 20.3 20.3 20.3 20.3 20.3 20.2 20.2 20.2 20.2 20.2 20.1 20.1 20.1 20.1 20.1 20.1 20.1 20.1 20.1 20.1 20.2 20.2 20.3 20.3 20.3 20.3 20.3 20.4 20.4 20.4 20.3 20.3 20.2 20.2 20.2 20.2 20.2 20.2 20.1 20.1 20.1 20.1 20.1 20.1 20.1 20.1 20.2 20.3 20.3 20.3 20.4 20.4 20.4 20.4 20.4 20.4 20.4 20.3 20.3 20.2 20.2 20.2 20.2 20.2 20.2 20.1 20.1 20.1 20.1 20.1 20.1 20.1 20.3 20.3 20.4 20.4 20.4 20.4 20.5 20.5 20.5 20.5 20.4 20.3 20.3 20.3 20.3 20.2 20.2 20.2 20.2 20.2 20.1 20.1 20.1 20.1 20.1 20.1 20.3 20.4 20.4 20.4 20.5 20.5 20.5 20.6 20.6 20.5 20.5 20.4 20.4 20.3 20.3 20.3 20.3 20.2 20.2 20.2 20.2 20.1 20.1 20.1 20.1 20.1 20.3 20.4 20.5 20.5 20.5 20.6 20.6 20.7 20.7 20.6 20.5 20.5 20.4 20.4 20.4 20.3 20.3 20.3 20.2 20.2 20.2 20.2 20.1 20.1 20.1 20.1 20.4 20.5 20.5 20.6 20.6 20.7 20.7 20.8 20.8 20.7 20.6 20.5 20.5 20.4 20.4 20.4 20.3 20.3 20.3 20.2 20.2 20.2 20.2 20.1 20.1 20.1 20.4 20.5 20.6 20.7 20.7 20.8 20.9 20.9 20.9 20.8 20.7 20.6 20.6 20.5 20.5 20.4 20.4 20.3 20.3 20.3 20.2 20.2 20.2 20.2 20.1 20.1 20.5 20.6 20.7 20.8 20.8 20.9 21.1 21.1 21.1 20.9 20.8 20.7 20.7 20.6 20.5 20.5 20.4 20.4 20.3 20.3 20.3 20.2 20.2 20.2 20.2 20.1 20.5 20.7 20.8 20.9 21.0 21.1 21.3 21.4 21.3 21.1 21.0 20.8 20.8 20.7 20.6 20.6 20.5 20.4 20.4 20.3 20.3 20.3 20.2 20.2 20.2 20.1 20.6 20.8 20.9 21.0 21.1 21.3 21.6 21.7 21.5 21.3 21.1 21.0 20.9 20.8 20.7 20.6 20.6 20.5 20.4 20.4 20.3 20.3 20.3 20.2 20.2 20.2 20.7 20.9 21.0 21.1 21.2 21.5 21.9 22.1 21.8 21.6 21.3 21.2 21.1 20.9 20.8 20.7 20.6 20.6 20.5 20.4 20.4 20.3 20.3 20.2 20.2 20.2 20.9 21.2 21.3 21.4 21.4 21.7 22.5 22.8 22.3 21.9 21.6 21.4 21.2 21.1 21.0 20.8 20.7 20.6 20.5 20.5 20.4 20.3 20.3 20.2 20.2 20.2 24.1 23.8 22.5 22.1 22.0 22.8 25.4 25.5 23.2 22.4 22.0 21.7 21.5 21.3 21.1 20.9 20.8 20.7 20.6 20.5 20.4 20.4 20.3 20.3 20.2 20.2 32.9 29.6 26.1 23.6 24.1 29.4 34.8 34.6 28.6 23.4 22.4 22.0 21.7 21.5 21.3 21.1 20.9 20.8 20.7 20.6 20.5 20.4 20.4 20.3 20.3 20.2 42.7 40.9 35.9 29.1 32.3 48.6 58.4 55.3 42.1 27.6 23.2 22.5 22.1 21.7 21.5 21.2 21.0 20.9 20.8 20.7 20.6 20.5 20.4 20.4 20.3 20.2 55.5 73.8 80.1 70.4 62.9 82.0 93.1 76.1 50.7 31.1 24.5 23.2 22.6 22.1 21.7 21.4 21.2 21.0 20.9 20.7 20.6 20.5 20.5 20.4 20.3 20.3 71.7 130.8 182.9 169.8 124.6 152.7 178.7 132.6 69.7 34.3 26.9 24.3 23.3 22.6 22.1 21.7 21.4 21.1 20.9 20.8 20.7 20.5 20.5 20.4 20.3 20.2 91.2 180.3 273.3 254.0 164.4 211.5 282.3 228.3 124.5 52.6 30.4 25.5 24.0 23.2 22.4 21.9 21.5 21.2 21.0 20.8 20.7 20.6 20.5 20.4 20.3 20.2 88.2 178.8 285.7 264.3 140.6 152.5 221.6 193.3 114.6 51.0 29.6 25.3 23.9 23.1 22.4 21.9 21.5 21.2 21.0 20.8 20.7 20.6 20.5 20.4 20.3 20.2 62.3 131.8 224.9 234.2 129.9 73.5 86.8 82.5 56.1 30.4 25.5 23.9 23.0 22.5 22.0 21.6 21.4 21.1 21.0 20.8 20.7 20.6 20.5 20.4 20.3 20.3 40.7 77.1 130.4 157.4 106.4 48.1 38.9 41.5 35.4 25.0 23.4 22.8 22.3 21.9 21.6 21.4 21.2 21.0 20.9 20.7 20.6 20.6 20.5 20.4 20.3 20.3 25.5 37.3 57.7 66.4 47.8 29.7 26.9 27.3 25.4 23.1 22.4 22.1 21.8 21.5 21.3 21.1 20.9 20.8 20.7 20.6 20.5 20.4 20.4 20.3 20.3 20.2 20.1 20.2 20.2 20.2 20.2 20.2 20.2 20.2 20.2 20.2 20.2 20.2 20.1 20.1 20.1 20.1 20.1 20.1 20.1 20.1 20.1 20.1 20.1 20.1 20.1 20.1 20.1 20.2 20.2 20.2 20.2 20.2 20.2 20.2 20.2 20.2 20.2 20.2 20.2 20.1 20.1 20.1 20.1 20.1 20.1 20.1 20.1 20.1 20.1 20.1 20.1 20.1 20.2 20.2 20.2 20.2 20.2 20.2 20.2 20.2 20.3 20.3 20.2 20.2 20.2 20.2 20.1 20.1 20.1 20.1 20.1 20.1 20.1 20.1 20.1 20.1 20.1 20.1 20.2 20.2 20.2 20.2 20.2 20.2 20.3 20.3 20.3 20.3 20.3 20.2 20.2 20.2 20.2 20.2 20.2 20.1 20.1 20.1 20.1 20.1 20.1 20.1 20.1 20.1 20.2 20.2 20.3 20.3 20.3 20.3 20.3 20.3 20.3 20.3 20.3 20.3 20.2 20.2 20.2 20.2 20.2 20.2 20.2 20.1 20.1 20.1 20.1 20.1 20.1 20.1 20.2 20.3 20.3 20.3 20.3 20.3 20.3 20.4 20.4 20.4 20.3 20.3 20.3 20.2 20.2 20.2 20.2 20.2 20.2 20.2 20.1 20.1 20.1 20.1 20.1 20.1 20.2 20.3 20.3 20.3 20.4 20.4 20.4 20.4 20.4 20.4 20.4 20.3 20.3 20.3 20.3 20.2 20.2 20.2 20.2 20.2 20.2 20.1 20.1 20.1 20.1 20.1 20.3 20.3 20.4 20.4 20.4 20.4 20.5 20.5 20.5 20.5 20.4 20.4 20.3 20.3 20.3 20.3 20.3 20.2 20.2 20.2 20.2 20.2 20.1 20.1 20.1 20.1 20.3 20.4 20.4 20.4 20.5 20.5 20.5 20.6 20.6 20.5 20.5 20.4 20.4 20.4 20.3 20.3 20.3 20.3 20.2 20.2 20.2 20.2 20.2 20.1 20.1 20.1 20.3 20.4 20.5 20.5 20.5 20.6 20.6 20.7 20.6 20.6 20.5 20.5 20.4 20.4 20.4 20.4 20.3 20.3 20.3 20.2 20.2 20.2 20.2 20.2 20.1 20.1 20.4 20.5 20.5 20.6 20.6 20.7 20.7 20.8 20.8 20.7 20.6 20.6 20.5 20.5 20.4 20.4 20.4 20.3 20.3 20.3 20.2 20.2 20.2 20.2 20.2 20.1 20.4 20.5 20.6 20.6 20.7 20.8 20.9 20.9 20.9 20.8 20.7 20.6 20.6 20.5 20.5 20.5 20.4 20.4 20.3 20.3 20.3 20.2 20.2 20.2 20.2 20.2 20.5 20.6 20.7 20.7 20.8 20.9 21.1 21.1 21.1 20.9 20.8 20.7 20.7 20.6 20.6 20.5 20.5 20.4 20.4 20.3 20.3 20.3 20.2 20.2 20.2 20.2 20.5 20.7 20.7 20.8 20.9 21.0 21.3 21.4 21.3 21.1 21.0 20.9 20.8 20.7 20.6 20.6 20.5 20.5 20.4 20.4 20.3 20.3 20.3 20.2 20.2 20.2 20.6 20.7 20.8 20.9 21.0 21.2 21.6 21.7 21.5 21.3 21.2 21.0 20.9 20.8 20.7 20.7 20.6 20.5 20.5 20.4 20.4 20.3 20.3 20.2 20.2 20.2 20.9 21.2 21.3 21.1 21.1 21.4 21.9 22.2 21.9 21.6 21.4 21.2 21.1 21.0 20.8 20.7 20.6 20.6 20.5 20.4 20.4 20.3 20.3 20.3 20.2 20.2 25.0 25.1 23.1 22.1 22.0 22.5 23.5 23.4 22.5 22.0 21.7 21.4 21.3 21.1 20.9 20.8 20.7 20.6 20.5 20.5 20.4 20.4 20.3 20.3 20.2 20.2 37.5 33.6 26.3 26.3 31.6 31.2 28.9 30.3 27.6 22.9 22.0 21.7 21.5 21.3 21.1 20.9 20.8 20.7 20.6 20.5 20.5 20.4 20.4 20.3 20.3 20.2 59.1 49.6 33.3 38.9 61.1 61.5 53.2 57.0 46.8 28.1 22.7 22.1 21.8 21.5 21.3 21.1 20.9 20.8 20.7 20.6 20.5 20.5 20.4 20.4 20.3 20.3 89.0 99.6 72.2 67.4 107.2 119.0 99.5 84.1 58.1 31.5 23.6 22.6 22.1 21.8 21.5 21.2 21.1 20.9 20.8 20.7 20.6 20.5 20.4 20.4 20.3 20.3 110.0 178.8 157.0 118.0 170.7 211.7 179.6 125.6 67.9 32.4 25.3 23.5 22.7 22.2 21.8 21.5 21.2 21.0 20.8 20.7 20.6 20.5 20.4 20.4 20.3 20.3 129.8 237.4 224.3 147.1 184.7 244.4 235.0 189.7 101.5 38.9 27.8 24.6 23.3 22.6 22.0 21.6 21.3 21.1 20.9 20.7 20.6 20.5 20.4 20.4 20.3 20.2 129.5 235.4 230.3 130.4 117.0 149.7 157.8 153.1 92.4 37.3 27.3 24.6 23.1 22.5 22.0 21.6 21.3 21.1 20.9 20.7 20.6 20.5 20.4 20.4 20.3 20.2 90.9 176.1 209.6 161.3 101.5 67.8 61.4 70.3 54.0 29.1 24.6 23.3 22.4 22.0 21.7 21.4 21.2 21.0 20.8 20.7 20.6 20.5 20.5 20.4 20.3 20.3 52.1 101.6 150.3 150.5 89.8 42.3 35.9 40.8 35.8 25.1 22.8 22.3 21.9 21.6 21.4 21.2 21.0 20.9 20.8 20.7 20.6 20.5 20.5 20.4 20.3 20.3 28.8 46.2 66.8 62.8 37.8 26.2 26.0 26.1 24.4 22.6 22.0 21.7 21.5 21.3 21.1 20.9 20.8 20.7 20.6 20.5 20.5 20.4 20.4 20.3 20.3 20.3 20.1 20.1 20.2 20.2 20.2 20.2 20.2 20.2 20.2 20.2 20.2 20.2 20.1 20.1 20.1 20.1 20.1 20.1 20.1 20.1 20.1 20.1 20.1 20.1 20.1 20.1 20.1 20.2 20.2 20.2 20.2 20.2 20.2 20.2 20.2 20.2 20.2 20.2 20.2 20.1 20.1 20.1 20.1 20.1 20.1 20.1 20.1 20.1 20.1 20.1 20.1 20.1 20.1 20.2 20.2 20.2 20.2 20.2 20.2 20.2 20.2 20.2 20.2 20.2 20.2 20.2 20.1 20.1 20.1 20.1 20.1 20.1 20.1 20.1 20.1 20.1 20.1 20.1 20.2 20.2 20.2 20.2 20.2 20.2 20.2 20.2 20.3 20.3 20.2 20.2 20.2 20.2 20.2 20.2 20.2 20.1 20.1 20.1 20.1 20.1 20.1 20.1 20.1 20.1 20.2 20.2 20.2 20.2 20.3 20.3 20.3 20.3 20.3 20.3 20.3 20.2 20.2 20.2 20.2 20.2 20.2 20.2 20.1 20.1 20.1 20.1 20.1 20.1 20.1 20.1 20.2 20.2 20.3 20.3 20.3 20.3 20.3 20.3 20.3 20.3 20.3 20.3 20.2 20.2 20.2 20.2 20.2 20.2 20.2 20.2 20.1 20.1 20.1 20.1 20.1 20.1 20.2 20.3 20.3 20.3 20.3 20.3 20.3 20.3 20.4 20.4 20.3 20.3 20.3 20.2 20.2 20.2 20.2 20.2 20.2 20.2 20.2 20.1 20.1 20.1 20.1 20.1 20.2 20.3 20.3 20.3 20.4 20.4 20.4 20.4 20.4 20.4 20.4 20.3 20.3 20.3 20.3 20.3 20.2 20.2 20.2 20.2 20.2 20.2 20.1 20.1 20.1 20.1 20.3 20.3 20.3 20.4 20.4 20.4 20.4 20.5 20.5 20.5 20.4 20.4 20.3 20.3 20.3 20.3 20.3 20.2 20.2 20.2 20.2 20.2 20.2 20.1 20.1 20.1 20.3 20.4 20.4 20.4 20.5 20.5 20.5 20.5 20.5 20.5 20.5 20.4 20.4 20.4 20.3 20.3 20.3 20.3 20.2 20.2 20.2 20.2 20.2 20.2 20.1 20.1 20.3 20.4 20.4 20.5 20.5 20.6 20.6 20.6 20.6 20.6 20.5 20.5 20.4 20.4 20.4 20.4 20.3 20.3 20.3 20.2 20.2 20.2 20.2 20.2 20.2 20.1 20.4 20.4 20.5 20.5 20.6 20.7 20.7 20.8 20.7 20.7 20.6 20.6 20.5 20.5 20.4 20.4 20.4 20.3 20.3 20.3 20.3 20.2 20.2 20.2 20.2 20.2 20.4 20.5 20.5 20.6 20.7 20.8 20.9 20.9 20.9 20.8 20.7 20.6 20.6 20.5 20.5 20.5 20.4 20.4 20.3 20.3 20.3 20.2 20.2 20.2 20.2 20.2 20.5 20.5 20.6 20.6 20.7 20.9 21.0 21.1 21.1 20.9 20.8 20.7 20.7 20.6 20.6 20.5 20.5 20.4 20.4 20.3 20.3 20.3 20.2 20.2 20.2 20.2 20.5 20.6 20.7 20.7 20.8 21.0 21.3 21.4 21.3 21.1 21.0 20.9 20.8 20.7 20.6 20.6 20.5 20.4 20.4 20.4 20.3 20.3 20.2 20.2 20.2 20.2 21.1 21.5 21.3 21.0 21.0 21.2 21.6 21.7 21.6 21.3 21.2 21.0 20.9 20.8 20.7 20.6 20.6 20.5 20.4 20.4 20.3 20.3 20.3 20.2 20.2 20.2 24.1 24.7 23.5 22.5 22.1 22.2 22.3 22.3 22.0 21.6 21.4 21.2 21.1 20.9 20.8 20.7 20.6 20.5 20.5 20.4 20.4 20.3 20.3 20.3 20.2 20.2 33.0 33.8 30.6 31.2 33.6 28.7 25.3 27.9 26.7 22.5 21.7 21.4 21.2 21.1 20.9 20.8 20.7 20.6 20.5 20.5 20.4 20.4 20.3 20.3 20.3 20.2 56.6 53.8 55.9 73.6 85.8 62.4 45.5 55.7 47.1 26.7 22.1 21.7 21.5 21.2 21.1 20.9 20.8 20.7 20.6 20.5 20.5 20.4 20.4 20.3 20.3 20.3 98.2 102.9 105.7 140.4 168.3 131.8 94.1 83.6 57.3 29.5 22.8 22.1 21.7 21.5 21.2 21.1 20.9 20.8 20.7 20.6 20.5 20.4 20.4 20.3 20.3 20.3 132.5 173.1 161.1 195.2 241.8 215.7 166.6 111.0 60.5 32.2 25.4 22.9 22.2 21.8 21.5 21.2 21.0 20.8 20.7 20.6 20.5 20.5 20.4 20.3 20.3 20.2 152.9 218.9 180.6 187.7 233.1 228.1 214.0 164.3 87.6 37.3 28.3 24.5 22.7 22.1 21.7 21.3 21.1 20.9 20.7 20.6 20.5 20.4 20.4 20.3 20.3 20.2 145.5 198.1 149.9 134.7 151.9 140.6 154.6 152.2 91.8 36.9 27.4 24.5 22.6 22.0 21.6 21.3 21.1 20.9 20.7 20.6 20.5 20.4 20.4 20.3 20.3 20.2 88.9 125.7 131.3 130.2 102.8 68.6 66.9 83.5 66.3 33.6 24.6 22.8 22.0 21.7 21.4 21.2 21.0 20.8 20.7 20.6 20.5 20.5 20.4 20.4 20.3 20.3 41.0 69.0 110.1 112.2 66.5 41.5 36.9 43.4 40.3 27.5 22.7 21.9 21.6 21.4 21.2 21.0 20.9 20.7 20.7 20.6 20.5 20.5 20.4 20.4 20.3 20.3 26.6 38.9 55.5 51.6 31.7 25.9 26.3 25.9 24.2 22.3 21.7 21.4 21.2 21.1 20.9 20.8 20.7 20.6 20.5 20.5 20.4 20.4 20.3 20.3 20.3 20.2 20.1 20.1 20.1 20.1 20.1 20.1 20.1 20.1 20.2 20.2 20.2 20.2 20.1 20.1 20.1 20.1 20.1 20.1 20.1 20.1 20.1 20.1 20.1 20.1 20.1 20.1 20.1 20.1 20.1 20.2 20.2 20.2 20.1 20.2 20.2 20.2 20.2 20.2 20.1 20.1 20.1 20.1 20.1 20.1 20.1 20.1 20.1 20.1 20.1 20.1 20.1 20.1 20.1 20.2 20.2 20.2 20.2 20.2 20.2 20.2 20.2 20.2 20.2 20.2 20.2 20.1 20.1 20.1 20.1 20.1 20.1 20.1 20.1 20.1 20.1 20.1 20.1 20.1 20.1 20.2 20.2 20.2 20.2 20.2 20.2 20.2 20.2 20.2 20.2 20.2 20.2 20.2 20.1 20.1 20.1 20.1 20.1 20.1 20.1 20.1 20.1 20.1 20.1 20.1 20.2 20.2 20.2 20.2 20.2 20.2 20.2 20.2 20.2 20.3 20.2 20.2 20.2 20.2 20.2 20.2 20.2 20.1 20.1 20.1 20.1 20.1 20.1 20.1 20.1 20.1 20.2 20.2 20.2 20.2 20.3 20.3 20.3 20.3 20.3 20.3 20.3 20.2 20.2 20.2 20.2 20.2 20.2 20.2 20.2 20.1 20.1 20.1 20.1 20.1 20.1 20.1 20.2 20.2 20.2 20.3 20.3 20.3 20.3 20.3 20.3 20.3 20.3 20.3 20.2 20.2 20.2 20.2 20.2 20.2 20.2 20.2 20.1 20.1 20.1 20.1 20.1 20.1 20.2 20.2 20.3 20.3 20.3 20.3 20.3 20.3 20.4 20.4 20.3 20.3 20.3 20.2 20.2 20.2 20.2 20.2 20.2 20.2 20.2 20.1 20.1 20.1 20.1 20.1 20.2 20.3 20.3 20.3 20.4 20.4 20.4 20.4 20.4 20.4 20.4 20.3 20.3 20.3 20.3 20.3 20.2 20.2 20.2 20.2 20.2 20.2 20.1 20.1 20.1 20.1 20.3 20.3 20.3 20.4 20.4 20.4 20.4 20.5 20.5 20.5 20.4 20.4 20.3 20.3 20.3 20.3 20.3 20.2 20.2 20.2 20.2 20.2 20.2 20.1 20.1 20.1 20.3 20.3 20.4 20.4 20.4 20.5 20.5 20.5 20.5 20.5 20.5 20.4 20.4 20.4 20.3 20.3 20.3 20.3 20.2 20.2 20.2 20.2 20.2 20.2 20.1 20.1 20.3 20.4 20.4 20.4 20.5 20.5 20.6 20.6 20.6 20.6 20.5 20.5 20.5 20.4 20.4 20.4 20.3 20.3 20.3 20.2 20.2 20.2 20.2 20.2 20.2 20.1 20.4 20.4 20.4 20.5 20.6 20.6 20.7 20.8 20.7 20.7 20.6 20.6 20.5 20.5 20.4 20.4 20.4 20.3 20.3 20.3 20.2 20.2 20.2 20.2 20.2 20.1 20.4 20.5 20.5 20.5 20.6 20.7 20.9 20.9 20.9 20.8 20.7 20.6 20.6 20.5 20.5 20.4 20.4 20.4 20.3 20.3 20.3 20.2 20.2 20.2 20.2 20.2 20.7 20.8 20.6 20.6 20.7 20.8 21.0 21.1 21.1 20.9 20.8 20.7 20.7 20.6 20.6 20.5 20.4 20.4 20.3 20.3 20.3 20.2 20.2 20.2 20.2 20.2 23.5 24.7 22.2 20.9 20.8 21.0 21.3 21.4 21.3 21.1 21.0 20.9 20.8 20.7 20.6 20.5 20.5 20.4 20.4 20.3 20.3 20.3 20.2 20.2 20.2 20.2 28.3 29.0 25.4 22.6 21.7 21.5 21.6 21.7 21.6 21.3 21.1 21.0 20.9 20.8 20.7 20.6 20.5 20.5 20.4 20.4 20.3 20.3 20.3 20.2 20.2 20.2 38.3 37.7 35.4 29.7 26.1 23.3 22.8 25.3 24.8 21.8 21.4 21.2 21.0 20.9 20.8 20.7 20.6 20.5 20.5 20.4 20.4 20.3 20.3 20.3 20.2 20.2 63.5 62.0 71.7 74.8 69.6 50.0 36.3 47.6 42.0 24.1 21.6 21.4 21.2 21.0 20.9 20.8 20.7 20.6 2