<?xml version="1.0"?>
<VTKFile type="ImageData" version="1.0" byte_order="LittleEndian" header_type="UInt64">
<ImageData WholeExtent="25 50 25 50 1 1"
 Origin="15.0000 15.0000 0.0000" Spacing="0.6000 0.6000 0.6000">
<Piece Extent="25 50 25 50 1 1">
<PointData>
<DataArray Name="TEMPERATURE" NumberOfComponents="1" type="Float32" format="ascii">
80.6 118.4 106.7 87.3 74.0 62.2 62.3 67.7 65.7 57.4 46.5 36.1 32.6 33.0 33.0 32.1 30.0 27.8 26.6 26.3 26.1 26.4 26.9 27.7 27.8 27.0 79.8 106.5 100.2 81.2 66.6 53.5 49.6 52.5 49.8 41.0 34.8 32.4 32.7 33.2 33.1 32.4 30.2 27.6 26.4 26.0 25.9 26.2 26.6 27.4 27.3 26.5 54.3 72.7 72.5 63.0 59.2 54.0 48.4 43.7 37.1 31.9 31.7 33.4 34.1 33.8 33.4 32.3 29.9 27.3 26.1 25.8 25.7 26.0 26.5 27.1 27.0 26.2 38.7 41.9 43.7 44.9 51.6 53.4 47.0 40.4 35.1 33.4 34.6 35.5 34.5 33.3 32.2 30.6 28.4 26.5 25.8 25.5 25.4 25.9 26.5 27.0 26.8 26.1 35.6 33.5 32.9 37.1 46.4 49.3 43.6 39.5 37.6 38.0 37.8 35.9 33.2 31.2 29.4 27.7 26.3 25.4 25.1 25.0 25.1 25.9 26.7 27.2 26.8 26.0 34.5 33.2 31.7 34.8 41.7 43.8 42.2 42.7 44.1 44.1 40.1 34.9 31.2 28.7 26.7 25.4 24.9 24.7 24.7 24.7 25.0 26.3 27.4 27.8 27.1 26.2 36.7 35.7 33.4 33.8 37.0 39.5 44.4 50.5 52.3 48.6 40.8 33.6 29.7 27.0 25.2 24.5 24.5 24.7 24.8 24.8 25.2 26.7 28.4 29.0 28.1 27.1 41.1 39.5 36.9 35.9 36.9 40.2 50.7 58.3 55.6 48.3 39.1 32.7 29.5 26.4 24.7 24.4 24.8 25.2 25.3 25.3 25.7 27.3 29.5 30.6 29.5 28.2 44.8 43.4 41.3 41.8 44.0 47.8 58.4 61.1 52.4 43.5 36.1 32.4 29.6 26.2 24.5 24.5 25.0 25.6 26.0 26.2 26.7 28.5 30.7 31.8 30.5 28.9 47.0 48.9 48.6 51.1 55.9 61.1 65.4 58.3 45.6 37.8 34.0 32.4 29.6 26.4 24.7 24.6 25.2 26.0 26.8 27.4 28.2 30.1 31.9 32.6 31.0 29.4 46.7 51.4 54.6 59.6 66.9 74.5 70.9 54.6 41.6 35.6 33.7 32.4 29.8 26.9 25.2 24.8 25.4 26.5 27.6 28.7 29.8 31.7 33.0 33.0 31.3 29.4 43.0 47.1 53.7 63.4 72.9 80.1 71.6 53.7 43.1 37.3 34.8 33.4 30.5 27.6 25.7 25.1 25.7 27.1 28.6 29.7 30.9 32.9 33.9 33.4 31.2 29.0 36.3 38.0 46.0 60.9 72.6 75.6 65.3 51.3 43.8 38.9 36.2 34.1 30.8 27.7 25.9 25.4 26.3 28.1 29.3 30.0 31.0 33.3 34.1 32.9 30.1 27.4 31.5 31.8 36.4 50.5 63.1 63.8 54.3 45.0 41.1 38.6 36.4 34.1 31.2 28.1 26.1 25.9 27.3 29.1 29.7 29.6 30.5 33.0 33.6 31.6 28.0 25.2 29.7 30.1 30.2 36.0 44.6 47.0 41.9 37.6 37.1 36.6 35.3 33.1 30.3 27.6 26.1 26.5 28.1 29.6 29.7 29.2 30.0 32.3 32.4 29.4 26.0 23.9 28.3 29.1 28.3 28.2 31.3 34.7 34.5 34.1 35.0 35.1 33.8 31.1 28.1 26.1 25.9 27.3 28.9 29.7 29.5 29.1 29.6 31.2 30.5 27.2 24.7 23.7 27.8 28.2 27.8 27.1 28.0 30.7 33.5 34.3 34.5 33.7 31.3 28.6 26.9 26.5 27.3 28.8 29.8 30.0 29.2 28.6 28.6 29.0 28.1 26.1 24.6 23.9 28.6 27.9 28.0 27.9 28.1 29.4 32.3 33.3 32.3 31.0 28.4 26.6 26.5 27.6 28.8 29.6 30.0 29.8 28.9 28.0 27.6 27.4 26.8 26.1 25.2 24.6 29.1 28.4 29.1 29.6 30.2 29.9 30.6 30.8 29.5 28.6 27.1 26.2 26.4 27.8 28.5 28.6 28.9 28.9 28.6 27.7 27.2 27.2 26.9 26.6 25.6 24.6 29.6 29.7 30.8 31.4 32.9 32.9 30.8 29.3 28.1 27.6 27.1 26.4 26.2 27.2 27.5 27.6 28.1 28.4 28.3 27.7 27.5 27.7 27.7 27.2 25.9 24.7 31.1 31.9 32.6 31.8 32.9 34.3 32.4 30.1 28.6 27.7 27.1 26.3 25.9 26.5 27.1 27.5 27.8 28.2 28.4 28.2 28.0 28.3 28.1 27.3 25.9 24.7 32.0 32.8 32.8 31.2 31.0 33.2 34.1 32.6 30.4 28.8 27.4 26.1 25.7 26.4 27.6 28.3 28.2 28.2 28.3 28.5 28.3 28.3 27.9 27.0 25.7 24.5 32.2 32.4 31.7 30.5 29.9 31.8 34.0 33.0 30.2 28.1 26.8 25.9 26.3 27.4 28.7 29.0 28.4 28.1 28.0 28.5 28.3 27.9 27.5 26.7 25.5 24.5 31.5 31.5 30.8 29.8 29.5 30.5 31.1 30.0 28.5 27.3 26.5 26.8 28.2 29.7 30.0 29.4 28.4 27.9 27.8 28.1 27.6 27.0 26.6 25.8 24.9 23.9 31.1 30.1 29.6 29.0 28.5 28.3 27.5 27.3 27.7 27.6 27.3 28.0 29.0 29.9 29.3 28.2 27.0 26.4 26.3 25.9 25.7 25.4 25.3 24.9 24.1 23.1 31.2 29.2 28.7 28.2 27.4 26.7 25.8 26.4 27.2 27.1 27.1 28.0 28.3 28.5 27.6 26.6 25.4 24.9 24.8 24.1 24.3 24.2 24.3 24.0 23.3 22.3 
</DataArray>
</PointData>
</Piece>
</ImageData>
</VTKFile>
