<?xml version="1.0"?>
<VTKFile type="ImageData" version="1.0" byte_order="LittleEndian" header_type="UInt64">
<ImageData WholeExtent="25 50 0 25 1 1"
 Origin="15.0000 0.0000 0.0000" Spacing="0.6000 0.6000 0.6000">
<Piece Extent="25 50 0 25 1 1">
<PointData>
<DataArray Name="TEMPERATURE" NumberOfComponents="1" type="Float32" format="ascii">
39.2 39.1 38.2 37.3 35.0 30.1 30.3 29.4 26.9 24.8 23.0 24.4 27.6 29.7 30.1 30.2 29.2 27.7 26.0 25.2 24.9 24.5 24.1 23.5 22.4 20.8 41.6 42.0 42.8 42.2 38.6 33.2 34.9 34.7 30.4 27.3 25.0 25.6 27.9 29.4 29.7 30.0 29.9 29.1 27.8 27.2 26.8 26.3 25.7 24.9 23.7 22.4 42.6 42.2 45.5 45.0 40.8 37.2 41.5 42.9 35.9 30.2 28.2 28.7 29.8 29.9 29.5 29.1 29.3 29.3 28.9 28.8 28.3 27.7 26.5 25.4 24.3 23.4 38.2 36.7 39.6 39.8 38.5 38.8 43.3 45.8 40.1 33.3 31.0 31.5 31.9 31.2 30.3 29.4 28.7 28.5 28.4 28.5 28.4 27.8 26.4 25.1 23.9 23.0 33.3 32.7 34.0 34.7 36.7 39.6 42.5 44.3 42.2 36.5 32.7 32.0 31.4 30.8 30.5 29.9 28.8 27.9 27.8 28.0 27.8 27.4 26.3 25.1 23.8 22.8 31.1 31.5 31.8 32.8 36.2 39.8 41.3 41.3 40.7 37.0 33.2 33.3 33.1 31.8 31.0 30.2 28.8 27.3 26.7 26.6 26.6 26.6 25.8 25.0 23.9 22.8 29.9 31.0 32.0 36.7 39.3 38.3 39.3 38.8 37.9 36.7 35.3 36.3 36.2 33.6 31.1 29.7 28.1 26.6 25.9 26.3 26.8 26.6 25.9 25.3 24.3 23.3 28.7 29.9 33.7 45.2 46.3 37.2 37.3 37.4 35.2 35.0 35.0 35.3 34.6 32.7 30.6 28.7 27.1 26.0 26.1 27.5 28.0 26.6 25.3 24.6 23.7 23.0 27.3 28.6 36.0 53.2 53.7 38.6 36.3 37.1 34.2 33.0 32.2 31.9 31.3 30.5 29.4 27.9 26.9 27.4 29.1 30.4 29.7 27.1 24.9 23.8 23.0 22.5 30.1 32.9 41.5 59.1 58.1 40.6 34.5 36.4 35.4 33.3 31.7 31.5 31.2 29.5 27.7 26.8 27.0 29.3 32.5 33.5 31.4 27.7 24.8 23.4 22.4 21.8 43.2 47.7 50.3 62.7 60.7 43.8 33.6 34.1 35.4 34.6 33.0 32.7 33.2 31.5 28.6 27.3 27.6 29.9 33.2 33.9 31.1 27.3 24.7 23.3 22.1 21.3 59.6 62.8 59.5 65.0 62.6 49.1 37.6 34.1 33.6 33.6 33.5 33.9 35.6 35.3 32.1 29.3 28.2 28.9 31.0 31.9 29.8 26.6 24.4 23.5 22.2 21.4 65.3 67.9 65.8 64.1 62.8 57.1 46.7 38.1 32.3 30.6 31.5 32.9 35.7 37.5 35.8 32.9 30.7 29.2 29.6 30.4 29.4 26.7 24.5 23.7 22.8 22.0 58.5 65.0 66.2 59.0 61.4 66.3 59.3 45.1 32.6 29.0 30.1 31.2 33.3 35.9 36.6 35.3 33.0 30.8 30.0 30.4 29.9 27.5 24.9 24.0 23.2 22.2 49.9 59.4 62.1 54.3 60.1 75.9 77.1 57.6 36.9 30.6 30.9 31.6 32.4 33.7 34.5 34.1 32.8 31.5 30.7 30.8 30.3 28.1 25.7 24.5 23.2 22.0 51.0 64.3 66.7 60.0 62.7 81.9 92.3 76.2 51.2 36.6 33.0 33.2 33.4 32.8 32.2 31.8 31.4 31.1 30.8 30.8 29.9 28.1 26.3 25.2 23.7 22.1 68.6 88.0 93.4 87.8 76.1 83.4 96.9 90.7 69.6 46.0 35.5 34.3 34.1 32.8 31.3 30.5 30.2 30.2 30.1 30.0 29.0 27.8 26.7 26.1 24.8 22.9 98.3 116.4 123.1 116.8 96.5 86.3 89.1 85.5 72.1 50.6 37.0 33.9 32.6 31.5 30.4 29.5 29.0 29.0 29.0 29.0 28.1 27.5 26.8 26.7 25.6 23.6 117.8 126.0 132.2 125.7 104.5 85.5 74.4 68.3 60.4 48.5 38.7 34.4 31.5 29.9 29.1 28.5 28.0 27.9 27.8 27.9 27.7 27.6 27.2 27.2 25.9 24.0 112.7 120.2 131.0 126.0 101.2 84.7 71.7 62.9 53.3 44.3 40.2 37.2 33.3 29.8 28.4 27.7 27.3 27.1 27.0 27.2 27.4 27.9 27.9 27.8 26.3 24.5 115.8 127.5 143.1 139.7 117.8 110.3 93.5 72.6 55.6 41.1 39.2 41.1 38.5 32.5 29.0 28.0 27.5 27.0 26.5 26.6 27.1 27.7 28.1 28.4 27.1 25.4 128.4 139.4 159.0 160.0 142.6 138.7 118.3 93.5 68.2 41.3 37.2 40.8 42.0 36.8 31.2 29.2 28.7 28.3 27.3 26.5 26.4 26.6 26.9 27.7 27.5 26.5 126.5 134.4 153.5 155.2 132.9 120.2 105.0 99.1 78.5 45.6 37.9 37.4 37.8 35.1 31.3 29.6 29.0 28.6 27.6 26.5 26.0 25.7 25.4 26.2 26.8 26.3 114.2 116.4 129.2 128.5 103.4 83.4 74.1 83.5 74.5 49.3 40.0 35.3 32.3 30.7 29.9 29.4 28.7 28.0 27.1 26.6 26.3 25.8 25.3 26.0 25.7 24.4 95.7 99.9 107.2 106.3 88.4 70.7 63.9 68.5 60.9 47.2 40.5 34.4 31.3 30.8 30.5 29.9 29.2 28.5 27.6 27.1 26.7 26.2 25.6 25.8 24.7 23.1 64.5 81.0 91.5 97.5 87.0 73.8 67.5 60.9 49.4 42.6 38.6 34.0 32.1 32.0 31.6 31.0 30.6 29.8 28.5 27.5 26.9 26.3 25.5 25.2 24.0 22.7 
</DataArray>
</PointData>
</Piece>
</ImageData>
</VTKFile>
