<?xml version="1.0"?>
<VTKFile type="RectilinearGrid" version="1.0" byte_order="LittleEndian" header_type="UInt64">
<RectilinearGrid WholeExtent="25 50 25 50 0 15">
<Piece Extent="25 50 25 50 0 15">
<Coordinates>
<DataArray type="Float64" Name="Array X-Axis" format="ascii" RangeMin="15.0" RangeMax="30.0">
15.0 15.6 16.2 16.8 17.4 18.0 18.6 19.2 19.8 20.4 21.0 21.6 22.2 22.8 23.4 24.0 24.6 25.2 25.8 26.4 27.0 27.6 28.2 28.8 29.4 30.0 
</DataArray>
<DataArray type="Float64" Name="Array Y-Axis" format="ascii" RangeMin="15.0" RangeMax="30.0">
15.0 15.6 16.2 16.8 17.4 18.0 18.6 19.2 19.8 20.4 21.0 21.6 22.2 22.8 23.4 24.0 24.6 25.2 25.8 26.4 27.0 27.6 28.2 28.8 29.4 30.0 
</DataArray>
<DataArray type="Float64" Name="Array Z-Axis" format="ascii" RangeMin="0.0" RangeMax="9.0">
0.0 0.6 1.2 1.8 2.4 3.0 3.6 4.2 4.8 5.4 6.0 6.6 7.2 7.8 8.4 9.0 
</DataArray>
</Coordinates>
<PointData>
<DataArray Name="SOOT DENSITY" NumberOfComponents="1" type="UInt8" format="ascii">
0 0 0 0 0 1 1 1 1 0 0 0 0 0 0 0 0 0 0 0 0 0 0 0 0 0 0 0 0 0 0 0 0 0 0 0 0 0 0 0 0 0 0 0 0 0 0 0 0 0 0 0 0 0 0 0 0 0 0 0 0 0 0 0 0 0 0 0 0 0 0 0 0 0 0 0 0 0 0 0 0 0 0 0 0 0 0 0 0 0 0 0 0 0 0 0 0 0 0 0 0 0 0 0 0 0 0 0 0 0 0 0 0 0 0 0 0 0 0 0 0 0 0 0 0 0 0 0 0 0 0 0 0 0 0 0 0 0 0 0 0 0 0 0 0 0 0 0 0 0 0 0 0 0 0 0 0 0 0 0 0 0 0 0 0 0 0 0 0 0 0 0 0 0 0 0 0 0 0 0 0 0 0 0 0 0 0 0 0 0 0 0 0 0 0 0 0 0 0 0 0 0 0 0 0 0 0 0 0 0 0 0 0 0 0 0 0 0 0 0 0 0 0 0 0 0 0 0 0 0 0 0 0 0 0 0 0 0 0 0 0 0 0 0 0 0 0 0 0 0 0 0 0 0 0 0 0 0 0 0 0 0 0 0 0 0 0 0 0 0 0 0 0 0 0 0 0 0 0 0 0 0 0 0 0 0 0 0 0 0 0 0 0 0 0 0 0 0 0 0 0 0 0 0 0 0 0 0 0 0 0 0 0 0 0 0 0 0 0 0 0 0 0 0 0 0 0 0 0 0 0 0 0 0 0 0 0 0 0 0 0 0 0 0 0 0 0 0 0 0 0 0 0 0 0 0 0 0 0 0 0 0 0 0 0 0 0 0 0 0 0 0 0 0 0 0 0 0 0 0 0 0 0 0 0 0 0 0 0 0 0 0 0 0 0 0 0 0 0 0 0 0 0 0 0 0 0 0 0 0 0 0 0 0 0 0 0 0 0 0 0 0 0 0 0 0 0 0 0 0 0 0 0 0 0 0 0 0 0 0 0 0 0 0 0 0 0 0 0 0 0 0 0 0 0 0 0 0 0 0 0 0 0 0 0 0 0 0 0 0 0 0 0 0 0 0 0 0 0 0 0 0 0 0 0 0 0 0 0 0 0 0 0 0 0 0 0 0 0 0 0 0 0 0 0 0 0 0 0 0 0 0 0 0 0 0 0 0 0 0 0 0 0 0 0 0 0 0 0 0 0 0 0 0 0 0 0 0 0 0 0 0 0 0 0 0 0 0 0 0 0 0 0 0 0 0 0 0 0 0 0 0 0 0 0 0 0 0 0 0 0 0 0 0 0 0 0 0 0 0 0 0 0 0 0 0 0 0 0 0 0 0 0 0 0 0 0 0 0 0 0 0 0 0 0 0 0 0 0 0 0 0 0 0 0 0 0 0 0 0 0 0 0 0 0 0 0 0 0 0 0 0 0 0 0 0 0 0 0 0 0 0 0 0 0 0 0 0 0 0 0 0 0 0 0 0 0 0 0 0 0 0 0 0 0 0 0 0 0 0 0 0 0 0 0 0 0 0 1 2 3 4 4 2 1 0 0 0 0 0 0 0 0 0 0 0 0 0 0 0 0 0 0 0 0 0 0 0 0 0 0 0 0 0 0 0 0 0 0 0 0 0 0 0 0 0 0 0 0 0 0 0 0 0 0 0 0 0 0 0 0 0 0 0 0 0 0 0 0 0 0 0 0 0 0 0 0 0 0 0 0 0 0 0 0 0 0 0 0 0 0 0 0 0 0 0 0 0 0 0 0 0 0 0 0 0 0 0 0 0 0 0 0 0 0 0 0 0 0 0 0 0 0 0 0 0 0 0 0 0 0 0 0 0 0 0 0 0 0 0 0 0 0 0 0 0 0 0 0 0 0 0 0 0 0 0 0 0 0 0 0 0 0 0 0 0 0 0 0 0 0 0 0 0 0 0 0 0 0 0 0 0 0 0 0 0 0 0 0 0 0 0 0 0 0 0 0 0 0 0 0 0 0 0 0 0 0 0 0 0 0 0 0 0 0 0 0 0 0 0 0 0 0 0 0 0 0 0 0 0 0 0 0 0 0 0 0 0 0 0 0 0 0 0 0 0 0 0 0 0 0 0 0 0 0 0 0 0 0 0 0 0 0 0 0 0 0 0 0 0 0 0 0 0 0 0 0 0 0 0 0 0 0 0 0 0 0 0 0 0 0 0 0 0 0 0 0 0 0 0 0 0 0 0 0 0 0 0 0 0 0 0 0 0 0 0 0 0 0 0 0 0 0 0 0 0 0 0 0 0 0 0 0 0 0 0 0 0 0 0 0 0 0 0 0 0 0 0 0 0 0 0 0 0 0 0 0 0 0 0 0 0 0 0 0 0 0 0 0 0 0 0 0 0 0 0 0 0 0 0 0 0 0 0 0 0 0 0 0 0 0 0 0 0 0 0 0 0 0 0 0 0 0 0 0 0 0 0 0 0 0 0 0 0 0 0 0 0 0 0 0 0 0 0 0 0 0 0 0 0 0 0 0 0 0 0 0 0 0 0 0 0 0 0 0 0 0 0 0 0 0 0 0 0 0 0 0 0 0 0 0 0 0 0 0 0 0 0 0 0 0 0 0 0 0 0 0 0 0 0 0 0 0 0 0 0 0 0 0 0 0 0 0 0 0 0 0 0 0 0 0 0 0 0 0 0 0 0 0 0 0 0 0 0 0 0 0 0 0 0 0 0 0 0 0 0 0 0 0 0 0 0 0 0 0 0 0 0 0 0 0 0 0 0 0 0 0 0 0 0 0 0 0 0 0 0 0 0 0 0 0 0 0 0 0 0 0 0 0 0 0 0 0 0 0 0 0 0 0 0 0 0 0 0 0 0 0 0 0 0 0 0 0 0 0 0 0 0 0 0 0 0 0 0 0 0 0 0 0 0 0 0 0 0 0 0 0 0 0 0 0 0 0 0 0 0 0 0 0 0 0 0 0 0 0 0 0 0 0 0 0 0 0 0 0 0 0 0 0 0 0 0 0 0 0 0 0 0 0 0 0 0 0 0 0 0 0 0 0 0 0 0 0 0 1 3 7 10 10 8 2 0 0 0 0 0 0 0 0 0 0 0 0 0 0 0 0 0 0 0 0 0 0 0 0 0 0 0 0 0 0 0 0 0 0 0 0 0 0 0 0 0 0 0 0 0 0 0 0 0 0 0 0 0 0 0 0 0 0 0 0 0 0 0 0 0 0 0 0 0 0 0 0 0 0 0 0 0 0 0 0 0 0 0 0 0 0 0 0 0 0 0 0 0 0 0 0 0 0 0 0 0 0 0 0 0 0 0 0 0 0 0 0 0 0 0 0 0 0 0 0 0 0 0 0 0 0 0 0 0 0 0 0 0 0 0 0 0 0 0 0 0 0 0 0 0 0 0 0 0 0 0 0 0 0 0 0 0 0 0 0 0 0 0 0 0 0 0 0 0 0 0 0 0 0 0 0 0 0 0 0 0 0 0 0 0 0 0 0 0 0 0 0 0 0 0 0 0 0 0 0 0 0 0 0 0 0 0 0 0 0 0 0 0 0 0 0 0 0 0 0 0 0 0 0 0 0 0 0 0 0 0 0 0 0 0 0 0 0 0 0 0 0 0 0 0 0 0 0 0 0 0 0 0 0 0 0 0 0 0 0 0 0 0 0 0 0 0 0 0 0 0 0 0 0 0 0 0 0 0 0 0 0 0 0 0 0 0 0 0 0 0 0 0 0 0 0 0 0 0 0 0 0 0 0 0 0 0 0 0 0 0 0 0 0 0 0 0 0 0 0 0 0 0 0 0 0 0 0 0 0 0 0 0 0 0 0 0 0 0 0 0 0 0 0 0 0 0 0 0 0 0 0 0 0 0 0 0 0 0 0 0 0 0 0 0 0 0 0 0 0 0 0 0 0 0 0 0 0 0 0 0 0 0 0 0 0 0 0 0 0 0 0 0 0 0 0 0 0 0 0 0 0 0 0 0 0 0 0 0 0 0 0 0 0 0 0 0 0 0 0 0 0 0 0 0 0 0 0 0 0 0 0 0 0 0 0 0 0 0 0 0 0 0 0 0 0 0 0 0 0 0 0 0 0 0 0 0 0 0 0 0 0 0 0 0 0 0 0 0 0 0 0 0 0 0 0 0 0 0 0 0 0 0 0 0 0 0 0 0 0 0 0 0 0 0 0 0 0 0 0 0 0 0 0 0 0 0 0 0 0 0 0 0 0 0 0 0 0 0 0 0 0 0 0 0 0 0 0 0 0 0 0 0 0 0 0 0 0 0 0 0 0 0 0 0 0 0 0 0 0 0 0 0 0 0 0 0 0 0 0 0 0 0 0 0 0 0 0 0 0 0 0 0 0 0 0 0 0 0 0 0 0 0 0 0 0 0 0 0 0 0 0 0 0 0 0 0 0 0 0 0 0 0 0 0 0 0 0 0 0 0 0 0 0 0 0 0 0 0 0 0 0 0 0 0 0 0 0 0 0 0 0 0 0 0 0 0 0 0 0 0 0 0 0 0 0 0 0 0 0 0 0 0 0 0 0 0 0 0 0 0 0 0 0 0 0 0 0 1 8 13 12 16 24 27 13 1 0 0 0 0 0 0 0 0 0 0 0 0 0 0 0 0 0 0 0 1 1 1 1 1 0 0 0 0 0 0 0 0 0 0 0 0 0 0 0 0 0 0 0 0 0 0 0 0 0 0 0 0 0 0 0 0 0 0 0 0 0 0 0 0 0 0 0 0 0 0 0 0 0 0 0 0 0 0 0 0 0 0 0 0 0 0 0 0 0 0 0 0 0 0 0 0 0 0 0 0 0 0 0 0 0 0 0 0 0 0 0 0 0 0 0 0 0 0 0 0 0 0 0 0 0 0 0 0 0 0 0 0 0 0 0 0 0 0 0 0 0 0 0 0 0 0 0 0 0 0 0 0 0 0 0 0 0 0 0 0 0 0 0 0 0 0 0 0 0 0 0 0 0 0 0 0 0 0 0 0 0 0 0 0 0 0 0 0 0 0 0 0 0 0 0 0 0 0 0 0 0 0 0 0 0 0 0 0 0 0 0 0 0 0 0 0 0 0 0 0 0 0 0 0 0 0 0 0 0 0 0 0 0 0 0 0 0 0 0 0 0 0 0 0 0 0 0 0 0 0 0 0 0 0 0 0 0 0 0 0 0 0 0 0 0 0 0 0 0 0 0 0 0 0 0 0 0 0 0 0 0 0 0 0 0 0 0 0 0 0 0 0 0 0 0 0 0 0 0 0 0 0 0 0 0 0 0 0 0 0 0 0 0 0 0 0 0 0 0 0 0 0 0 0 0 0 0 0 0 0 0 0 0 0 0 0 0 0 0 0 0 0 0 0 0 0 0 0 0 0 0 0 0 0 0 0 0 0 0 0 0 0 0 0 0 0 0 0 0 0 0 0 0 0 0 0 0 0 0 0 0 0 0 0 0 0 0 0 0 0 0 0 0 0 0 0 0 0 0 0 0 0 0 0 0 0 0 0 0 0 0 0 0 0 0 0 0 0 0 0 0 0 0 0 0 0 0 0 0 0 0 0 0 0 0 0 0 0 0 0 0 0 0 0 0 0 0 0 0 0 0 0 0 0 0 0 0 0 0 0 0 0 0 0 0 0 0 0 0 0 0 0 0 0 0 0 0 0 0 0 0 0 0 0 0 0 0 0 0 0 0 0 0 0 0 0 0 0 0 0 0 0 0 0 0 0 0 0 0 0 0 0 0 0 0 0 0 0 0 0 0 0 0 0 0 0 0 0 0 0 0 0 0 0 0 0 0 0 0 0 0 0 0 0 0 0 0 0 0 0 0 0 0 0 0 0 0 0 0 0 0 0 0 0 0 0 0 0 0 0 0 0 0 0 0 0 0 0 0 0 0 0 0 0 0 0 0 0 0 0 0 0 0 0 0 0 0 0 0 0 0 0 0 0 0 0 0 0 0 0 0 0 0 0 0 0 0 0 0 0 0 0 0 0 0 0 0 0 0 0 0 0 0 0 0 0 0 0 0 0 0 0 0 0 0 0 0 0 0 0 0 0 0 0 0 0 0 0 0 0 0 0 0 0 0 0 2 25 46 36 22 24 33 34 16 1 0 0 0 0 0 0 0 0 0 0 0 0 0 0 0 0 0 1 2 2 3 3 2 1 1 0 0 0 0 0 0 0 0 0 0 0 0 0 0 0 0 0 0 0 0 0 0 0 0 0 0 0 0 0 0 0 0 0 0 0 0 0 0 0 0 0 0 0 0 0 0 0 0 0 0 0 0 0 0 0 0 0 0 0 0 0 0 0 0 0 0 0 0 0 0 0 0 0 0 0 0 0 0 0 0 0 0 0 0 0 0 0 0 0 0 0 0 0 0 0 0 0 0 0 0 0 0 0 0 0 0 0 0 0 0 0 0 0 0 0 0 0 0 0 0 0 0 0 0 0 0 0 0 0 0 0 0 0 0 0 0 0 0 0 0 0 0 0 0 0 0 0 0 0 0 0 0 0 0 0 0 0 0 0 0 0 0 0 0 0 0 0 0 0 0 0 0 0 0 0 0 0 0 0 0 0 0 0 0 0 0 0 0 0 0 0 0 0 0 0 0 0 0 0 0 0 0 0 0 0 0 0 0 0 0 0 0 0 0 0 0 0 0 0 0 0 0 0 0 0 0 0 0 0 0 0 0 0 0 0 0 0 0 0 0 0 0 0 0 0 0 0 0 0 0 0 0 0 0 0 0 0 0 0 0 0 0 0 0 0 0 0 0 0 0 0 0 0 0 0 0 0 0 0 0 0 0 0 0 0 0 0 0 0 0 0 0 0 0 0 0 0 0 0 0 0 0 0 0 0 0 0 0 0 0 0 0 0 0 0 0 0 0 0 0 0 0 0 0 0 0 0 0 0 0 0 0 0 0 0 0 0 0 0 0 0 0 0 0 0 0 0 0 0 0 0 0 0 0 0 0 0 0 0 0 0 0 0 0 0 0 0 0 0 0 0 0 0 0 0 0 0 0 0 0 0 0 0 0 0 0 0 0 0 0 0 0 0 0 0 0 0 0 0 0 0 0 0 0 0 0 0 0 0 0 0 0 0 0 0 0 0 0 0 0 0 0 0 0 0 0 0 0 0 0 0 0 0 0 0 0 0 0 0 0 0 0 0 0 0 0 0 0 0 0 0 0 0 0 0 0 0 0 0 0 0 0 0 0 0 0 0 0 0 0 0 0 0 0 0 0 0 0 0 0 0 0 0 0 0 0 0 0 0 0 0 0 0 0 0 0 0 0 0 0 0 0 0 0 0 0 0 0 0 0 0 0 0 0 0 0 0 0 0 0 0 0 0 0 0 0 0 0 0 0 0 0 0 0 0 0 0 0 0 0 0 0 0 0 0 0 0 0 0 0 0 0 0 0 0 0 0 0 0 0 0 0 0 0 0 0 0 0 0 0 0 0 0 0 0 0 0 0 0 0 0 0 0 0 0 0 0 0 0 0 0 0 0 0 0 0 0 0 0 0 0 0 0 0 0 0 0 0 0 0 0 0 0 0 0 0 0 0 0 0 0 0 0 0 0 0 0 0 0 0 0 0 0 0 0 0 0 0 0 0 0 11 56 80 56 33 28 28 23 8 1 0 0 0 0 0 0 0 0 0 0 0 0 0 0 0 0 0 3 6 5 6 4 2 1 0 0 0 0 0 0 0 0 0 0 0 0 0 0 0 0 0 0 0 0 0 0 0 0 0 0 0 0 0 0 0 0 0 0 0 0 0 0 0 0 0 0 0 0 0 0 0 0 0 0 0 0 0 0 0 0 0 0 0 0 0 0 0 0 0 0 0 0 0 0 0 0 0 0 0 0 0 0 0 0 0 0 0 0 0 0 0 0 0 0 0 0 0 0 0 0 0 0 0 0 0 0 0 0 0 0 0 0 0 0 0 0 0 0 0 0 0 0 0 0 0 0 0 0 0 0 0 0 0 0 0 0 0 0 0 0 0 0 0 0 0 0 0 0 0 0 0 0 0 0 0 0 0 0 0 0 0 0 0 0 0 0 0 0 0 0 0 0 0 0 0 0 0 0 0 0 0 0 0 0 0 0 0 0 0 0 0 0 0 0 0 0 0 0 0 0 0 0 0 0 0 0 0 0 0 0 0 0 0 0 0 0 0 0 0 0 0 0 0 0 0 0 0 0 0 0 0 0 0 0 0 0 0 0 0 0 0 0 0 0 0 0 0 0 0 0 0 0 0 0 0 0 0 0 0 0 0 0 0 0 0 0 0 0 0 0 0 0 0 0 0 0 0 0 0 0 0 0 0 0 0 0 0 0 0 0 0 0 0 0 0 0 0 0 0 0 0 0 0 0 0 0 0 0 0 0 0 0 0 0 0 0 0 0 0 0 0 0 0 0 0 0 0 0 0 0 0 0 0 0 0 0 0 0 0 0 0 0 0 0 0 0 0 0 0 0 0 0 0 0 0 0 0 0 0 0 0 0 0 0 0 0 0 0 0 0 0 0 0 0 0 0 0 0 0 0 0 0 0 0 0 0 0 0 0 0 0 0 0 0 0 0 0 0 0 0 0 0 0 0 0 0 0 0 0 0 0 0 0 0 0 0 0 0 0 0 0 0 0 0 0 0 0 0 0 0 0 0 0 0 0 0 0 0 0 0 0 0 0 0 0 0 0 0 0 0 0 0 0 0 0 0 0 0 0 0 0 0 0 0 0 0 0 0 0 0 0 0 0 0 0 0 0 0 0 0 0 0 0 0 0 0 0 0 0 0 0 0 0 0 0 0 0 0 0 0 0 0 0 0 0 0 0 0 0 0 0 0 0 0 0 0 0 0 0 0 0 0 0 0 0 0 0 0 0 0 0 0 0 0 0 0 0 0 0 0 0 0 0 0 0 0 0 0 0 0 0 0 0 0 0 0 0 0 0 0 0 0 0 0 0 0 0 0 0 0 0 0 0 0 0 0 0 0 0 0 0 0 0 0 0 0 0 0 0 0 0 0 0 0 0 0 0 0 0 0 0 0 0 0 0 0 0 0 0 0 0 0 0 0 0 0 0 0 0 0 0 0 0 0 0 0 0 0 0 0 0 0 0 0 0 0 0 0 0 0 0 0 0 0 0 0 70 139 140 95 49 27 18 14 6 2 0 0 0 0 0 0 0 0 0 0 0 0 0 0 0 0 10 47 57 30 12 4 1 1 0 0 0 0 0 0 0 0 0 0 0 0 0 0 0 0 0 0 0 6 7 2 0 0 0 0 0 0 0 0 0 0 0 0 0 0 0 0 0 0 0 0 0 0 0 0 0 0 0 0 0 0 0 0 0 0 0 0 0 0 0 0 0 0 0 0 0 0 0 0 0 0 0 0 0 0 0 0 0 0 0 0 0 0 0 0 0 0 0 0 0 0 0 0 0 0 0 0 0 0 0 0 0 0 0 0 0 0 0 0 0 0 0 0 0 0 0 0 0 0 0 0 0 0 0 0 0 0 0 0 0 0 0 0 0 0 0 0 0 0 0 0 0 0 0 0 0 0 0 0 0 0 0 0 0 0 0 0 0 0 0 0 0 0 0 0 0 0 0 0 0 0 0 0 0 0 0 0 0 0 0 0 0 0 0 0 0 0 0 0 0 0 0 0 0 0 0 0 0 0 0 0 0 0 0 0 0 0 0 0 0 0 0 0 0 0 0 0 0 0 0 0 0 0 0 0 0 0 0 0 0 0 0 0 0 0 0 0 0 0 0 0 0 0 0 0 0 0 0 0 0 0 0 0 0 0 0 0 0 0 0 0 0 0 0 0 0 0 0 0 0 0 0 0 0 0 0 0 0 0 0 0 0 0 0 0 0 0 0 0 0 0 0 0 0 0 0 0 0 0 0 0 0 0 0 0 0 0 0 0 0 0 0 0 0 0 0 0 0 0 0 0 0 0 0 0 0 0 0 0 0 0 0 0 0 0 0 0 0 0 0 0 0 0 0 0 0 0 0 0 0 0 0 0 0 0 0 0 0 0 0 0 0 0 0 0 0 0 0 0 0 0 0 0 0 0 0 0 0 0 0 0 0 0 0 0 0 0 0 0 0 0 0 0 0 0 0 0 0 0 0 0 0 0 0 0 0 0 0 0 0 0 0 0 0 0 0 0 0 0 0 0 0 0 0 0 0 0 0 0 0 0 0 0 0 0 0 0 0 0 0 0 0 0 0 0 0 0 0 0 0 0 0 0 0 0 0 0 0 0 0 0 0 0 0 0 0 0 0 0 0 0 0 0 0 0 0 0 0 0 0 0 0 0 0 0 0 0 0 0 0 0 0 0 0 0 0 0 0 0 0 0 0 0 0 0 0 0 0 0 0 0 0 0 0 0 0 0 0 0 0 0 0 0 0 0 0 0 0 0 0 0 0 0 0 0 0 0 0 0 0 0 0 0 0 0 0 0 0 0 0 0 0 0 0 0 0 0 0 0 0 0 0 0 0 0 0 0 0 0 0 0 0 0 0 0 0 0 0 0 0 0 0 0 0 0 0 0 0 0 0 0 0 0 0 0 0 0 0 0 0 0 0 0 0 0 0 0 0 0 0 0 0 0 0 0 0 0 0 0 0 0 0 0 0 0 0 0 0 0 0 0 0 0 0 0 0 0 0 0 0 0 109 196 199 153 87 30 10 11 11 5 1 0 0 0 0 0 0 0 0 0 0 0 0 0 0 0 24 96 111 60 23 5 1 1 1 0 0 0 0 0 0 0 0 0 0 0 0 0 0 0 0 0 1 11 13 3 1 0 0 0 0 0 0 0 0 0 0 0 0 0 0 0 0 0 0 0 0 0 0 0 0 0 0 0 0 0 0 0 0 0 0 0 0 0 0 0 0 0 0 0 0 0 0 0 0 0 0 0 0 0 0 0 0 0 0 0 0 0 0 0 0 0 0 0 0 0 0 0 0 0 0 0 0 0 0 0 0 0 0 0 0 0 0 0 0 0 0 0 0 0 0 0 0 0 0 0 0 0 0 0 0 0 0 0 0 0 0 0 0 0 0 0 0 0 0 0 0 0 0 0 0 0 0 0 0 0 0 0 0 0 0 0 0 0 0 0 0 0 0 0 0 0 0 0 0 0 0 0 0 0 0 0 0 0 0 0 0 0 0 0 0 0 0 0 0 0 0 0 0 0 0 0 0 0 0 0 0 0 0 0 0 0 0 0 0 0 0 0 0 0 0 0 0 0 0 0 0 0 0 0 0 0 0 0 0 0 0 0 0 0 0 0 0 0 0 0 0 0 0 0 0 0 0 0 0 0 0 0 0 0 0 0 0 0 0 0 0 0 0 0 0 0 0 0 0 0 0 0 0 0 0 0 0 0 0 0 0 0 0 0 0 0 0 0 0 0 0 0 0 0 0 0 0 0 0 0 0 0 0 0 0 0 0 0 0 0 0 0 0 0 0 0 0 0 0 0 0 0 0 0 0 0 0 0 0 0 0 0 0 0 0 0 0 0 0 0 0 0 0 0 0 0 0 0 0 0 0 0 0 0 0 0 0 0 0 0 0 0 0 0 0 0 0 0 0 0 0 0 0 0 0 0 0 0 0 0 0 0 0 0 0 0 0 0 0 0 0 0 0 0 0 0 0 0 0 0 0 0 0 0 0 0 0 0 0 0 0 0 0 0 0 0 0 0 0 0 0 0 0 0 0 0 0 0 0 0 0 0 0 0 0 0 0 0 0 0 0 0 0 0 0 0 0 0 0 0 0 0 0 0 0 0 0 0 0 0 0 0 0 0 0 0 0 0 0 0 0 0 0 0 0 0 0 0 0 0 0 0 0 0 0 0 0 0 0 0 0 0 0 0 0 0 0 0 0 0 0 0 0 0 0 0 0 0 0 0 0 0 0 0 0 0 0 0 0 0 0 0 0 0 0 0 0 0 0 0 0 0 0 0 0 0 0 0 0 0 0 0 0 0 0 0 0 0 0 0 0 0 0 0 0 0 0 0 0 0 0 0 0 0 0 0 0 0 0 0 0 0 0 0 0 0 0 0 0 0 0 0 0 0 0 0 0 0 0 0 0 0 0 0 0 0 0 0 0 0 0 0 0 0 0 0 0 0 0 0 0 0 0 0 0 0 0 0 0 0 0 0 0 0 0 0 0 0 0 0 0 0 0 0 0 0 0 0 0 0 76 187 208 167 89 23 11 19 20 11 4 0 0 0 0 0 0 0 0 0 0 0 0 0 0 0 20 88 105 58 21 4 1 2 2 1 0 0 0 0 0 0 0 0 0 0 0 0 0 0 0 0 2 7 8 2 1 0 0 0 0 0 0 0 0 0 0 0 0 0 0 0 0 0 0 0 0 0 0 0 0 0 0 0 0 0 0 0 0 0 0 0 0 0 0 0 0 0 0 0 0 0 0 0 0 0 0 0 0 0 0 0 0 0 0 0 0 0 0 0 0 0 0 0 0 0 0 0 0 0 0 0 0 0 0 0 0 0 0 0 0 0 0 0 0 0 0 0 0 0 0 0 0 0 0 0 0 0 0 0 0 0 0 0 0 0 0 0 0 0 0 0 0 0 0 0 0 0 0 0 0 0 0 0 0 0 0 0 0 0 0 0 0 0 0 0 0 0 0 0 0 0 0 0 0 0 0 0 0 0 0 0 0 0 0 0 0 0 0 0 0 0 0 0 0 0 0 0 0 0 0 0 0 0 0 0 0 0 0 0 0 0 0 0 0 0 0 0 0 0 0 0 0 0 0 0 0 0 0 0 0 0 0 0 0 0 0 0 0 0 0 0 0 0 0 0 0 0 0 0 0 0 0 0 0 0 0 0 0 0 0 0 0 0 0 0 0 0 0 0 0 0 0 0 0 0 0 0 0 0 0 0 0 0 0 0 0 0 0 0 0 0 0 0 0 0 0 0 0 0 0 0 0 0 0 0 0 0 0 0 0 0 0 0 0 0 0 0 0 0 0 0 0 0 0 0 0 0 0 0 0 0 0 0 0 0 0 0 0 0 0 0 0 0 0 0 0 0 0 0 0 0 0 0 0 0 0 0 0 0 0 0 0 0 0 0 0 0 0 0 0 0 0 0 0 0 0 0 0 0 0 0 0 0 0 0 0 0 0 0 0 0 0 0 0 0 0 0 0 0 0 0 0 0 0 0 0 0 0 0 0 0 0 0 0 0 0 0 0 0 0 0 0 0 0 0 0 0 0 0 0 0 0 0 0 0 0 0 0 0 0 0 0 0 0 0 0 0 0 0 0 0 0 0 0 0 0 0 0 0 0 0 0 0 0 0 0 0 0 0 0 0 0 0 0 0 0 0 0 0 0 0 0 0 0 0 0 0 0 0 0 0 0 0 0 0 0 0 0 0 0 0 0 0 0 0 0 0 0 0 0 0 0 0 0 0 0 0 0 0 0 0 0 0 0 0 0 0 0 0 0 0 0 0 0 0 0 0 0 0 0 0 0 0 0 0 0 0 0 0 0 0 0 0 0 0 0 0 0 0 0 0 0 0 0 0 0 0 0 0 0 0 0 0 0 0 0 0 0 0 0 0 0 0 0 0 0 0 0 0 0 0 0 0 0 0 0 0 0 0 0 0 0 0 0 0 0 0 0 0 0 0 0 0 0 0 0 0 0 0 0 0 0 0 0 0 0 0 0 0 0 0 0 0 0 0 0 0 0 0 0 0 0 0 0 0 31 124 159 113 43 10 16 38 42 23 7 1 0 0 0 0 0 0 0 0 0 0 0 0 0 0 14 40 51 27 9 3 1 2 3 2 0 0 0 0 0 0 0 0 0 0 0 0 0 0 0 0 4 3 2 1 1 0 0 0 0 0 0 0 0 0 0 0 0 0 0 0 0 0 0 0 0 0 1 1 0 0 0 0 0 0 0 0 0 0 0 0 0 0 0 0 0 0 0 0 0 0 0 0 0 0 0 0 0 0 0 0 0 0 0 0 0 0 0 0 0 0 0 0 0 0 0 0 0 0 0 0 0 0 0 0 0 0 0 0 0 0 0 0 0 0 0 0 0 0 0 0 0 0 0 0 0 0 0 0 0 0 0 0 0 0 0 0 0 0 0 0 0 0 0 0 0 0 0 0 0 0 0 0 0 0 0 0 0 0 0 0 0 0 0 0 0 0 0 0 0 0 0 0 0 0 0 0 1 0 0 0 0 0 0 0 0 0 0 0 0 0 0 0 0 0 0 0 0 0 0 0 0 0 1 1 0 0 0 0 0 0 0 0 0 0 0 0 0 0 0 0 0 0 0 0 0 0 0 0 1 1 1 1 0 0 0 0 0 0 0 0 0 0 0 0 0 0 0 0 0 0 0 0 0 0 1 1 1 1 0 0 0 0 0 0 0 0 0 0 0 0 0 0 0 0 0 0 0 0 0 0 1 1 1 0 0 0 0 0 0 0 0 0 0 0 0 0 0 0 0 0 0 0 0 0 0 0 1 1 0 0 0 0 0 0 0 0 1 0 0 0 0 0 0 0 0 0 0 0 0 0 0 0 1 1 0 0 0 0 0 0 0 0 1 0 0 0 0 0 0 0 0 0 0 0 0 0 0 0 1 0 0 0 0 0 0 0 0 0 0 0 0 0 0 0 0 0 0 0 0 0 0 0 0 0 1 0 0 0 0 0 0 0 0 0 0 0 0 0 0 0 0 0 0 0 0 0 0 0 0 0 1 0 0 0 0 0 0 0 0 0 0 0 0 0 0 0 0 0 0 0 0 0 0 0 0 0 1 1 0 0 0 0 0 0 0 0 0 0 0 0 0 0 0 0 0 0 0 0 0 0 0 0 0 1 0 0 0 0 0 0 0 0 0 0 0 0 0 0 0 0 0 0 0 0 0 0 0 0 0 0 0 0 0 0 0 0 0 0 0 0 0 0 0 0 0 0 0 0 0 0 0 0 0 0 0 0 0 0 0 0 0 0 0 0 0 0 0 0 0 0 0 0 0 0 0 0 0 0 0 0 0 0 0 0 0 0 0 0 0 0 0 0 0 0 0 0 0 0 0 0 0 0 0 0 0 0 0 0 0 0 0 0 0 0 0 0 0 0 0 0 0 0 0 0 0 0 0 0 0 0 0 0 0 0 0 0 0 0 0 0 0 0 0 0 0 0 0 0 0 0 0 0 0 0 0 0 0 0 0 0 0 0 0 0 0 0 0 0 0 0 0 0 0 0 0 0 0 0 0 0 0 0 0 0 48 82 87 61 29 18 26 50 59 36 9 2 1 1 1 1 1 1 1 1 1 2 3 3 2 1 34 35 34 25 14 11 8 7 7 5 2 1 1 1 1 1 1 1 1 2 2 3 3 3 2 1 15 16 18 12 5 6 4 2 3 2 1 1 2 2 2 1 1 1 2 2 2 3 3 3 2 1 6 4 5 4 1 1 1 1 1 1 1 1 2 2 2 1 1 1 2 2 2 3 3 4 3 1 3 1 1 1 1 1 1 1 1 1 0 1 1 1 1 1 1 1 2 2 3 3 3 3 2 1 2 1 1 1 1 1 1 1 1 1 0 0 1 1 1 1 1 1 2 2 3 3 3 2 2 1 2 1 1 1 2 2 1 1 1 1 0 0 1 1 1 1 1 2 2 3 4 4 3 2 1 0 4 2 2 2 2 2 1 1 1 1 0 0 1 1 1 1 2 2 3 3 4 4 2 1 1 0 8 4 4 3 3 2 2 1 1 1 1 1 1 2 1 2 2 3 4 4 4 3 1 1 1 0 12 7 6 6 4 3 2 1 1 1 1 2 2 2 2 2 3 4 5 4 3 2 1 1 1 0 13 8 7 7 4 3 2 2 1 1 2 3 3 2 2 3 4 4 4 3 1 1 1 1 1 0 11 8 7 6 5 4 3 2 2 1 2 5 5 3 2 3 3 3 2 2 1 1 1 1 1 0 9 9 7 6 6 7 4 3 3 3 5 6 6 3 2 2 2 2 2 2 1 1 1 1 1 0 8 9 8 7 9 8 5 3 4 6 8 8 5 3 2 2 2 2 2 2 1 1 1 1 1 0 7 9 10 9 9 7 4 3 4 8 10 7 4 3 2 2 2 2 2 2 2 1 1 1 1 0 6 7 7 7 6 4 3 3 5 10 10 5 3 2 2 2 2 2 2 2 2 1 1 1 1 0 5 4 3 3 3 3 3 3 5 11 9 3 2 2 2 2 2 2 2 2 2 1 1 1 1 0 4 3 3 3 3 3 3 4 5 8 7 2 2 2 3 2 2 1 1 1 1 1 1 1 1 0 4 4 4 3 3 3 4 5 5 5 4 1 1 2 2 2 2 1 1 1 1 1 1 1 1 0 5 4 3 3 3 4 5 6 5 3 2 1 1 1 2 2 2 1 1 1 1 1 1 1 1 0 4 4 3 3 3 4 6 7 4 3 1 1 1 1 1 1 1 1 1 1 1 1 1 1 1 0 3 3 3 2 3 3 5 5 4 3 2 1 1 1 1 1 1 1 1 1 1 1 1 1 0 0 2 3 3 2 2 2 3 3 3 2 2 1 1 1 1 1 1 1 1 1 1 1 1 0 0 0 2 2 2 2 1 1 2 2 1 1 1 1 1 1 1 1 1 1 1 1 1 1 0 0 0 0 2 2 2 1 1 0 1 1 1 1 0 0 0 0 1 1 0 0 0 0 0 0 0 0 0 0 0 0 0 0 0 0 0 0 0 0 0 0 0 0 0 0 0 0 0 0 0 0 0 0 0 0 131 157 133 118 84 69 63 61 73 58 26 14 9 8 9 10 10 8 6 6 6 8 12 14 15 11 112 121 108 98 74 73 63 37 29 21 15 12 11 13 13 12 10 8 7 7 7 9 12 14 15 14 60 66 65 53 34 47 43 20 15 11 7 11 17 20 18 15 11 8 7 7 8 10 12 15 16 14 33 25 18 14 10 17 17 12 10 6 5 12 21 22 19 15 10 7 7 8 9 11 13 16 17 15 30 22 9 9 11 13 14 12 9 6 6 12 18 18 16 12 9 7 7 8 10 13 15 18 18 16 22 18 9 12 14 16 16 13 12 9 8 11 13 13 11 9 7 6 7 9 11 15 18 20 17 14 16 11 11 17 18 17 15 13 12 10 8 8 9 9 8 7 6 7 8 10 14 18 21 19 13 8 27 14 17 24 23 17 14 11 10 8 6 6 7 7 6 6 7 8 10 13 18 22 21 16 9 3 51 30 30 36 31 21 13 10 8 6 5 6 8 7 7 7 9 12 14 18 23 23 18 13 8 2 74 50 46 52 42 25 15 11 8 6 6 9 12 11 9 10 13 16 18 21 24 21 15 11 8 3 82 60 51 58 47 26 18 14 11 8 9 16 21 17 14 15 17 18 19 21 21 18 13 11 8 3 77 62 46 48 43 29 22 18 15 11 13 24 30 23 17 16 16 18 20 21 20 17 13 11 9 5 70 65 47 39 41 37 28 22 18 14 19 33 37 25 16 15 16 19 21 22 21 18 14 11 9 7 59 65 55 45 44 40 31 25 22 23 32 42 37 23 16 15 18 22 24 24 23 19 14 12 10 8 49 61 63 54 42 31 26 25 29 38 47 47 33 20 17 18 21 24 25 24 22 18 14 12 10 8 50 58 58 45 29 18 17 25 39 52 54 41 25 19 19 20 22 24 23 21 19 16 13 12 10 7 46 47 42 28 17 14 15 26 46 61 52 29 17 16 18 19 20 20 19 17 15 14 12 12 10 7 32 31 28 20 16 17 20 31 48 62 50 21 13 14 16 18 18 17 15 14 12 12 12 12 9 7 21 20 20 18 19 23 31 40 49 58 42 15 9 11 13 15 15 14 13 11 11 11 11 11 9 6 18 16 15 16 20 29 41 46 45 43 26 9 7 9 10 11 12 11 10 10 9 10 10 10 8 6 19 17 14 15 20 33 49 47 34 25 13 7 7 8 9 10 10 9 9 8 8 9 9 9 8 5 20 19 17 15 17 31 48 41 24 15 9 7 7 9 9 9 9 9 8 8 8 8 8 8 7 5 21 23 21 14 12 22 37 33 18 12 9 8 8 10 10 10 10 9 8 8 8 8 7 6 5 4 24 25 24 15 8 12 22 23 16 13 10 9 10 10 10 10 10 8 8 7 7 7 6 5 5 4 25 27 22 13 6 5 10 14 15 15 10 8 9 9 9 10 9 8 7 7 6 5 5 4 4 3 20 27 16 6 2 2 5 11 15 14 8 6 7 8 9 9 9 7 7 6 5 3 2 3 3 2 198 220 210 197 166 147 128 100 94 78 54 44 38 36 36 37 37 36 34 31 30 30 35 39 38 26 200 209 203 196 174 163 146 111 83 56 44 42 42 43 41 38 34 30 29 29 29 31 34 39 39 35 159 174 167 161 133 133 128 96 73 46 32 40 51 54 49 41 32 27 26 28 29 32 35 40 40 35 116 119 89 90 70 77 85 76 68 41 29 41 55 56 49 39 30 25 26 28 31 35 38 42 41 36 103 93 45 46 46 51 60 69 67 47 42 51 55 51 43 35 28 26 26 29 34 40 43 47 43 31 88 80 43 45 48 53 62 70 73 69 68 61 51 45 38 31 27 27 27 31 38 45 48 50 43 23 65 60 43 51 57 64 72 75 81 85 77 56 43 41 34 28 29 29 29 35 44 52 53 51 39 16 64 55 54 63 71 73 71 70 75 74 58 42 41 38 31 29 32 33 35 42 53 59 57 50 35 11 91 80 80 87 93 81 62 55 52 45 36 37 41 35 30 34 40 41 42 51 62 65 57 48 33 10 124 112 110 115 112 92 66 49 36 30 34 41 41 35 35 44 51 49 51 60 68 68 58 49 35 11 143 129 124 131 120 96 78 58 46 43 45 46 47 45 49 56 57 55 59 68 72 70 61 51 37 13 146 130 123 128 114 94 84 72 68 63 54 54 59 58 59 59 56 58 67 75 76 74 64 53 40 17 145 133 119 116 105 92 88 83 78 67 57 63 69 66 62 57 57 65 74 80 80 77 65 54 43 20 140 138 127 113 100 89 90 89 77 66 65 73 75 69 63 60 64 73 81 84 84 79 66 54 45 28 130 139 136 117 92 73 82 87 76 75 81 84 78 71 67 67 70 78 83 84 82 76 63 54 45 34 130 135 132 108 75 51 60 74 79 89 93 88 79 72 71 71 73 79 81 79 75 66 57 52 43 33 133 127 115 84 56 43 47 64 84 102 101 87 72 67 68 70 71 73 72 69 64 57 52 49 42 33 124 112 92 63 50 49 55 73 96 115 110 85 64 58 61 64 66 66 62 58 53 50 49 47 41 35 96 84 68 54 58 67 77 93 109 121 108 74 51 48 52 56 57 56 53 50 47 46 46 44 40 35 66 60 52 51 65 81 98 107 110 112 89 53 39 40 44 46 47 46 45 44 43 43 43 43 40 35 58 57 50 51 64 88 110 111 100 87 59 36 34 36 38 39 40 41 41 40 40 41 42 43 40 34 62 62 60 57 60 85 111 106 82 59 38 30 34 37 37 38 42 45 43 40 40 41 41 42 39 33 61 64 65 56 48 71 101 96 65 42 32 32 36 41 41 43 46 47 43 39 39 40 39 39 36 29 60 62 61 48 35 51 83 81 56 44 43 42 42 43 45 48 50 48 42 39 39 39 37 36 32 25 63 65 59 44 30 34 53 59 56 56 50 42 36 36 39 48 51 46 39 36 35 33 31 30 25 17 52 67 55 31 19 24 33 46 56 58 47 27 16 18 21 38 47 40 28 26 29 26 25 24 16 3 218 237 234 227 209 195 183 158 132 117 114 122 132 137 131 113 92 87 92 97 97 90 77 69 67 49 229 234 233 230 220 210 201 182 151 127 124 132 138 134 118 95 82 86 93 97 95 89 78 71 68 64 216 223 222 222 213 206 203 191 171 147 136 139 138 126 102 85 82 87 92 92 90 85 78 73 70 65 195 199 189 197 188 185 189 188 183 164 147 140 130 109 89 82 84 87 88 86 83 81 78 76 72 66 175 179 155 166 159 152 169 181 185 174 160 145 119 94 83 83 86 87 84 80 78 80 79 78 74 63 158 168 143 151 140 128 152 176 187 185 177 153 114 89 84 85 88 87 81 75 77 81 81 81 75 59 144 153 133 139 134 130 152 176 190 192 183 152 111 91 88 88 90 86 77 75 80 85 85 84 76 61 134 141 130 131 136 142 154 169 183 186 173 142 110 94 91 91 91 84 77 78 85 90 89 87 78 64 136 144 141 137 146 150 145 146 158 162 149 126 105 96 92 93 91 83 80 84 91 95 93 90 82 68 150 157 156 152 156 153 136 122 121 123 117 106 98 94 94 95 93 87 86 92 98 101 99 95 87 72 164 166 166 164 160 154 137 115 104 103 101 97 95 95 97 97 94 91 93 100 105 107 104 100 92 77 173 168 168 169 161 152 141 124 115 112 104 98 98 99 100 96 93 94 101 108 112 113 109 105 99 84 179 172 167 166 158 148 143 135 125 116 106 102 104 104 101 96 95 100 107 113 116 117 112 109 106 90 185 181 173 166 157 142 140 142 129 117 111 109 109 108 103 99 100 107 113 117 120 120 115 115 112 100 186 185 178 169 157 135 133 143 133 126 124 120 117 114 107 104 105 111 116 119 120 119 117 120 115 105 185 180 175 165 153 126 120 134 134 135 135 132 128 121 114 111 112 116 119 121 120 120 120 121 112 98 187 174 162 149 139 117 106 121 131 139 143 142 135 128 122 118 118 120 121 121 120 120 121 118 101 84 188 169 147 126 119 108 104 117 132 145 150 146 136 129 124 121 120 121 119 119 117 116 114 104 87 73 178 160 136 115 110 109 114 125 137 148 149 141 129 123 118 114 113 113 112 110 109 105 98 87 76 70 158 147 127 114 113 117 126 135 140 144 139 127 117 111 105 101 100 100 100 98 95 89 82 77 73 70 132 131 119 112 115 123 134 140 138 134 122 110 102 95 90 88 90 92 91 89 85 81 77 76 74 70 115 118 116 114 116 125 138 141 132 121 108 98 91 86 85 86 91 93 91 86 82 80 78 77 75 71 111 113 114 112 109 120 137 138 122 108 100 93 87 86 88 91 95 97 92 86 82 80 77 78 75 71 108 109 109 103 96 107 129 131 115 104 101 95 90 90 93 97 101 99 92 85 82 81 79 80 77 72 109 111 107 95 83 87 105 115 112 109 103 93 85 86 91 100 103 98 88 81 79 78 78 79 74 64 88 111 106 85 70 75 86 102 110 110 101 82 69 70 76 93 100 91 76 71 74 72 73 73 65 39 161 191 188 177 160 146 139 120 97 89 91 102 116 121 115 95 72 65 71 78 79 72 57 46 45 35 181 185 186 183 174 163 157 143 117 102 105 114 120 117 100 75 63 68 76 80 79 71 58 48 46 45 173 176 179 181 178 171 167 160 143 128 123 122 118 103 79 63 64 72 77 76 73 67 57 50 47 46 158 161 160 169 167 161 163 164 160 149 136 124 108 82 63 61 68 73 73 69 65 60 55 51 49 48 135 146 137 151 143 133 148 158 164 158 144 124 94 67 60 65 71 73 69 62 57 55 54 52 50 49 119 136 124 134 121 104 128 151 164 162 152 126 87 63 63 68 73 72 64 56 53 53 54 53 52 51 114 127 114 119 110 98 120 149 164 164 155 128 87 66 68 72 73 68 59 52 52 54 55 55 55 54 109 117 106 105 103 106 122 141 157 161 151 123 86 70 72 74 71 63 55 52 53 56 57 58 58 57 103 111 106 100 102 112 117 122 136 144 134 107 81 74 75 73 66 58 53 53 55 58 60 61 62 61 103 111 109 102 104 110 103 96 104 108 99 83 76 75 73 68 61 56 55 56 59 62 63 65 66 66 108 113 112 107 107 107 95 83 79 77 74 72 73 72 69 62 58 57 58 59 62 65 66 69 71 70 115 117 115 111 110 109 98 84 75 72 72 72 72 70 64 60 59 59 60 63 65 68 69 73 76 76 124 122 117 115 113 108 100 90 79 75 74 74 74 70 63 60 60 61 63 66 68 70 72 78 82 81 133 130 122 120 118 105 96 96 88 82 81 79 76 70 64 61 62 63 66 68 70 73 76 85 88 86 138 134 127 125 123 103 91 100 99 95 92 86 79 73 66 63 64 65 68 70 72 75 82 91 91 87 138 129 123 124 124 103 88 99 104 103 100 94 87 80 73 69 69 71 73 75 77 82 90 95 89 80 138 121 111 113 116 96 82 92 100 102 102 101 98 92 85 80 79 80 81 83 85 90 93 92 78 64 140 119 103 96 95 82 75 83 92 99 102 104 103 99 92 87 85 85 86 87 89 90 88 79 61 49 141 122 103 88 79 73 74 80 86 94 99 103 102 98 90 84 82 82 82 83 82 79 71 59 49 45 132 120 103 88 78 73 76 82 84 89 94 98 96 89 80 74 73 73 73 72 70 62 54 48 46 46 105 104 94 85 80 77 79 84 86 88 89 90 83 73 67 65 66 66 66 63 59 54 49 47 47 46 83 86 84 82 83 82 84 87 88 89 87 81 71 63 62 63 65 65 64 61 56 52 49 48 48 47 79 80 81 81 82 84 86 89 88 85 83 75 66 61 62 64 66 67 65 61 56 53 51 50 50 50 79 80 80 78 76 77 84 89 86 81 77 70 65 64 66 68 69 69 65 60 56 55 54 56 56 55 79 81 79 71 64 65 73 82 82 78 73 67 64 65 68 71 71 69 63 58 56 56 56 58 57 54 61 80 77 66 57 58 65 76 80 77 72 66 62 62 67 71 71 66 60 55 54 54 56 57 54 38 0 0 0 0 0 0 0 0 0 0 0 0 0 0 0 0 0 0 0 0 0 0 0 0 0 0 0 0 0 0 0 0 0 0 0 0 0 0 0 0 0 0 0 0 0 0 0 0 0 0 0 0 0 0 0 0 0 0 0 0 0 0 0 0 0 0 0 0 0 0 0 0 0 0 0 0 0 0 0 0 0 0 0 0 0 0 0 0 0 0 0 0 0 0 0 0 0 0 0 0 0 0 0 0 0 0 0 0 0 0 0 0 0 0 0 0 0 0 0 0 0 0 0 0 0 0 0 0 0 0 0 0 0 0 0 0 0 0 0 0 0 0 0 0 0 0 0 0 0 0 0 0 0 0 0 0 0 0 0 0 0 0 0 0 0 0 0 0 0 0 0 0 0 0 0 0 0 0 0 0 0 0 0 0 0 0 0 0 0 0 0 0 0 0 0 0 0 0 0 0 0 0 0 0 0 0 0 0 0 0 0 0 0 0 0 0 0 0 0 0 0 0 0 0 0 0 0 0 0 0 0 0 0 0 0 0 0 0 0 0 0 0 0 0 0 0 0 0 0 0 0 0 0 0 0 0 0 0 0 0 0 0 0 0 0 0 0 0 0 0 0 0 0 0 0 0 0 0 0 0 0 0 0 0 0 0 0 0 0 0 0 0 0 0 0 0 0 0 0 0 0 0 0 0 0 0 0 0 0 0 0 0 0 0 0 0 0 0 0 0 0 0 0 0 0 0 0 0 0 0 0 0 0 0 0 0 0 0 0 0 0 0 0 0 0 0 0 0 0 0 0 0 0 0 0 0 0 0 0 0 0 0 0 0 0 0 0 0 0 0 0 0 0 0 0 0 0 0 0 0 0 0 0 0 0 0 0 0 0 0 0 0 0 0 0 0 0 0 0 0 0 0 0 0 0 0 0 0 0 0 0 0 0 0 0 0 0 0 0 0 0 0 0 0 0 0 0 0 0 0 0 0 0 0 0 0 0 0 0 0 0 0 0 0 0 0 0 0 0 0 0 0 0 0 0 0 0 0 0 0 0 0 0 0 0 0 0 0 0 0 0 0 0 0 0 0 0 0 0 0 0 0 0 0 0 0 0 0 0 0 0 0 0 0 0 0 0 0 0 0 0 0 0 0 0 0 0 0 0 0 0 0 0 0 0 0 0 0 0 0 0 0 0 0 0 0 0 0 0 0 0 0 0 0 0 0 0 0 0 0 0 0 0 0 0 0 0 0 0 0 0 0 0 0 0 0 0 0 0 0 0 0 0 0 0 0 0 0 0 0 0 0 0 0 0 0 0 0 0 0 0 0 0 0 0 0 0 0 0 0 0 0 0 0 0 0 0 0 0 0 0 0 0 0 0 0 0 0 0 0 0 0 0 0 0 0 0 0 0 0 0 0 0 0 0 0 0 0 0 0 0 0 0 0 0 0 0 0 0 0 0 0 0 0 0 0 0 0 0 0 0 0 0 0 0 0 0 0 0 0 0 0 0 0 0 0 0 0 0 0 0 0 0 0 0 0 
</DataArray>
<DataArray Name="HRRPUV" NumberOfComponents="1" type="UInt8" format="ascii">