<?xml version="1.0"?>
<VTKFile type="ImageData" version="1.0" byte_order="LittleEndian" header_type="UInt64">
<ImageData WholeExtent="25 50 0 25 1 1"
 Origin="15.0000 0.0000 0.0000" Spacing="0.6000 0.6000 0.6000">
<Piece Extent="25 50 0 25 1 1">
<PointData>
<DataArray Name="TEMPERATURE" NumberOfComponents="1" type="Float32" format="ascii">
39.7 43.6 43.1 39.0 38.5 40.6 35.5 31.8 35.9 37.2 33.6 29.6 27.1 25.2 24.1 24.0 23.7 24.1 24.0 23.6 23.3 23.0 22.8 22.5 22.1 21.3 45.6 47.2 43.1 38.0 39.6 43.6 39.6 35.3 38.7 41.7 39.3 34.6 30.8 27.7 25.7 25.1 25.0 25.3 25.4 25.0 24.6 24.2 23.9 23.5 23.1 22.2 51.9 48.6 40.4 36.2 42.1 49.5 48.2 42.9 43.0 46.3 45.9 41.7 36.5 31.5 28.2 26.8 26.4 26.3 26.1 25.8 25.3 25.0 24.6 24.7 24.0 22.9 48.5 43.4 36.3 35.0 43.1 51.3 52.5 47.8 44.0 45.1 46.8 45.9 41.4 35.2 30.2 27.9 27.0 26.3 25.8 25.2 24.7 24.5 24.4 25.0 24.5 23.3 42.9 40.3 35.6 33.8 39.8 47.4 51.2 48.4 43.1 42.3 44.6 45.8 43.4 37.2 30.8 27.5 26.4 25.8 25.3 24.9 24.6 24.5 24.5 25.3 24.9 23.5 40.3 40.5 38.1 34.6 36.5 43.5 49.8 49.0 44.1 41.5 41.6 42.0 41.1 37.3 32.0 28.2 26.2 25.4 25.0 24.6 24.5 24.7 24.9 25.5 25.0 23.6 38.2 39.1 39.5 37.5 37.9 42.7 48.9 49.4 44.7 40.5 39.2 39.1 38.8 36.9 33.0 29.3 27.0 25.9 25.5 24.9 24.6 24.9 25.1 25.6 25.0 23.8 37.7 38.8 40.1 40.2 41.8 44.5 47.5 46.5 41.3 37.2 36.3 36.3 36.1 35.0 32.6 29.9 27.8 26.8 26.2 25.5 25.0 25.0 25.4 25.7 24.8 23.4 38.7 41.1 42.1 44.5 47.9 48.5 46.6 41.9 37.1 34.7 34.1 33.6 32.8 32.1 31.2 29.6 27.8 27.0 26.6 26.1 25.5 25.3 25.6 25.9 24.7 23.2 36.7 39.8 41.3 44.7 49.0 48.7 44.6 38.9 35.3 35.0 35.1 33.6 31.5 29.9 28.8 27.5 26.4 26.2 26.3 26.4 26.1 25.8 25.9 26.0 24.7 23.0 34.7 39.8 41.7 42.9 45.1 45.7 43.3 37.9 34.7 36.0 37.3 35.2 31.5 29.0 27.7 26.4 25.5 25.5 25.9 26.4 26.4 26.2 26.1 25.9 24.6 23.3 40.4 49.3 52.1 50.4 48.3 47.9 44.9 38.4 34.0 34.8 37.3 36.1 32.1 28.8 27.0 25.9 25.2 24.9 25.2 26.0 26.3 26.4 26.3 25.9 24.8 23.7 49.7 60.4 65.2 61.1 54.1 49.9 44.1 37.9 33.2 32.8 36.2 37.1 33.2 29.0 26.6 25.5 25.0 24.7 24.6 25.2 25.9 26.4 26.4 26.3 25.4 24.4 53.8 62.9 70.2 66.4 56.2 46.8 39.4 35.2 31.7 30.8 34.2 37.2 35.0 30.7 27.4 25.7 24.9 24.6 24.4 24.6 25.1 25.9 26.3 26.7 26.1 25.0 50.5 57.0 65.1 65.9 57.6 44.7 36.6 33.2 30.3 29.1 31.0 35.1 36.0 33.0 29.4 26.8 25.5 24.9 24.6 24.7 25.1 25.7 26.3 27.3 26.9 25.5 48.0 53.2 57.9 60.4 58.1 48.7 40.6 34.6 30.0 28.1 28.6 32.0 34.3 33.2 30.5 28.2 26.6 25.8 25.3 25.2 25.4 25.9 26.4 27.7 27.4 25.9 55.8 64.7 60.1 55.0 56.9 56.1 50.0 40.0 31.7 28.6 28.3 30.4 32.2 31.7 30.0 28.4 27.3 26.8 26.3 26.0 25.9 26.1 26.5 27.7 27.5 26.2 67.8 81.5 69.1 54.2 54.3 61.4 60.2 47.9 35.6 30.6 29.5 30.4 31.0 30.1 28.6 27.8 27.4 27.5 27.4 26.7 26.3 26.3 26.5 27.6 27.6 26.5 81.4 90.4 78.0 62.7 58.0 65.4 65.4 52.1 38.3 32.8 31.9 32.0 31.9 30.4 28.8 27.7 27.5 27.7 27.6 26.9 26.3 26.3 26.6 27.7 27.6 26.6 95.6 97.3 88.8 80.5 73.0 71.8 65.3 51.6 41.3 37.2 35.9 35.8 35.1 33.4 31.8 29.6 28.3 28.0 27.4 26.6 26.1 26.3 26.8 27.7 27.6 26.7 104.1 107.7 103.4 95.1 85.4 76.7 65.9 62.8 61.3 49.9 41.2 40.5 39.8 37.9 35.9 32.8 30.7 29.8 28.3 26.9 26.4 26.6 26.9 27.7 27.7 26.8 109.7 118.1 115.2 101.1 94.1 85.6 77.5 95.5 105.5 73.5 46.5 45.2 48.5 48.7 43.8 36.1 32.2 31.9 30.4 27.7 26.5 26.9 27.4 28.1 27.8 26.8 117.6 125.0 120.7 106.8 104.6 101.6 100.6 121.6 130.0 88.5 48.6 43.5 49.4 51.5 45.2 36.2 32.1 31.5 29.8 27.5 26.8 27.8 28.8 29.2 28.3 27.0 116.6 118.4 103.5 95.2 102.2 107.7 112.0 122.9 121.2 86.0 48.9 36.9 38.3 38.9 35.9 33.0 31.6 30.0 27.8 26.8 27.0 28.1 28.7 29.2 28.3 26.9 99.2 96.9 72.5 70.4 85.3 97.3 102.5 106.1 98.6 71.6 46.1 34.5 31.5 30.7 30.3 30.2 30.1 29.1 27.5 26.6 26.5 27.0 27.5 28.1 27.7 26.7 67.0 71.0 52.3 54.2 61.1 68.0 71.9 73.3 66.2 50.9 40.8 35.0 31.2 29.6 29.3 29.2 29.0 28.4 27.3 26.2 25.9 26.4 26.9 27.5 27.4 26.7 
</DataArray>
</PointData>
</Piece>
</ImageData>
</VTKFile>
