<?xml version="1.0"?>
<VTKFile type="ImageData" version="1.0" byte_order="LittleEndian" header_type="UInt64">
<ImageData WholeExtent="25 50 25 50 1 1"
 Origin="15.0000 15.0000 0.0000" Spacing="0.6000 0.6000 0.6000">
<Piece Extent="25 50 25 50 1 1">
<PointData>
<DataArray Name="TEMPERATURE" NumberOfComponents="1" type="Float32" format="ascii">
63.2 79.5 57.5 51.7 61.2 63.6 56.0 47.7 40.1 34.0 31.9 33.9 34.9 32.6 30.3 29.3 28.4 27.4 26.4 25.8 25.6 26.5 27.3 28.0 28.3 27.7 50.4 53.6 44.6 44.5 57.1 62.8 54.5 44.1 34.3 30.0 31.2 34.5 35.3 32.7 30.1 28.8 28.0 27.0 26.3 25.8 25.7 26.4 27.0 28.0 28.6 28.2 37.8 39.6 41.5 46.5 58.5 64.2 56.3 44.7 34.5 30.9 32.3 34.8 34.8 32.2 29.4 28.0 27.3 26.7 26.3 26.1 26.1 26.8 27.4 28.6 29.1 28.3 36.2 38.2 43.9 51.4 62.1 68.2 61.5 48.8 37.8 33.2 33.4 34.5 33.4 30.4 28.0 26.8 26.6 26.6 26.6 26.6 26.7 27.5 28.1 29.4 29.4 28.0 33.7 39.2 47.0 56.6 66.4 70.7 64.7 51.6 39.6 33.1 31.9 31.7 30.0 27.6 26.2 25.9 26.6 27.2 27.2 27.1 27.3 28.1 28.8 30.0 29.4 27.6 32.9 39.0 47.5 58.1 67.5 69.1 63.8 52.3 38.6 30.5 28.4 27.8 26.9 25.9 25.5 26.1 27.4 28.1 27.7 27.3 27.5 28.6 29.4 30.6 29.7 27.8 33.9 38.8 47.4 57.7 65.2 65.2 60.8 50.3 36.1 28.6 27.3 27.2 26.8 26.3 26.2 27.2 28.5 28.7 27.9 27.1 27.6 29.0 30.0 31.1 30.3 28.5 37.0 40.1 46.9 55.3 60.0 58.1 53.3 43.6 33.4 29.8 29.5 29.2 28.3 27.3 27.3 28.6 29.6 28.9 27.5 26.9 27.8 29.8 31.1 31.9 30.9 29.1 41.7 40.9 43.4 48.2 52.1 51.2 45.3 37.2 32.7 31.6 31.0 29.9 28.6 27.9 28.6 29.8 30.0 28.6 27.4 27.4 28.7 31.3 32.6 32.9 31.4 29.5 48.2 43.3 41.1 41.9 44.5 47.3 42.9 36.2 33.6 31.0 29.3 28.9 28.8 28.9 30.0 30.8 30.2 28.8 28.1 28.7 30.3 33.0 34.3 34.1 32.1 29.8 52.6 45.9 42.3 41.6 40.5 42.9 41.8 37.4 34.1 29.8 28.8 30.0 30.4 30.5 31.5 31.9 30.9 29.8 29.5 30.3 31.8 34.2 35.0 34.5 32.2 29.7 53.9 46.4 43.3 43.0 39.2 37.3 38.4 37.1 33.4 30.9 32.2 33.3 33.2 33.4 33.9 33.5 32.1 31.1 30.9 31.7 32.9 34.6 35.0 34.0 31.6 29.2 55.8 47.0 44.7 44.6 39.6 35.1 35.8 35.7 33.3 34.0 36.4 37.2 37.6 37.9 36.3 34.3 32.5 31.6 31.3 31.9 33.2 34.4 34.4 33.1 30.8 28.6 57.4 48.4 45.3 45.9 41.8 38.2 37.2 36.0 36.3 38.7 40.0 41.2 41.8 40.2 35.6 32.5 31.0 30.4 30.5 31.5 32.6 33.2 32.8 31.3 29.4 27.7 55.9 48.9 43.8 45.8 45.9 44.7 41.4 39.0 41.3 44.6 45.4 45.6 42.8 36.7 31.0 28.9 28.5 28.9 29.7 30.8 31.4 31.2 30.8 29.6 27.9 26.5 51.8 48.4 42.1 44.2 48.0 48.1 44.2 43.3 46.7 50.0 50.2 46.8 38.5 30.4 27.0 26.4 26.9 28.1 29.1 29.7 29.8 29.5 29.2 28.6 27.4 26.4 45.5 46.1 40.7 41.7 45.6 45.2 43.9 46.6 49.0 49.3 47.1 39.9 30.9 26.5 25.7 25.5 26.3 27.7 28.5 28.7 28.5 28.3 28.3 28.3 27.7 26.9 37.0 39.9 37.9 40.0 42.6 41.5 42.9 46.4 46.0 41.5 36.1 30.1 26.2 25.6 25.3 25.5 26.4 27.4 28.0 28.0 27.7 27.9 28.2 28.7 28.0 26.7 31.1 34.3 35.3 39.1 41.7 41.1 42.2 42.7 40.4 34.0 27.8 25.3 25.2 25.5 25.6 26.1 26.9 27.5 27.8 27.8 27.6 28.1 28.3 28.4 27.1 25.3 30.1 32.3 33.7 37.2 41.8 43.6 41.7 38.3 35.8 30.8 26.1 24.5 25.1 26.0 26.8 27.4 27.8 27.9 28.2 28.3 28.2 28.8 28.5 28.0 26.3 24.4 29.4 29.9 30.7 33.8 40.7 44.4 39.2 34.2 32.9 29.8 26.6 25.4 25.9 27.3 28.0 28.1 28.1 28.3 28.6 28.8 28.9 29.2 28.3 27.3 25.6 23.9 27.6 27.1 28.0 30.8 37.2 39.6 34.5 32.4 33.1 31.3 28.7 27.3 27.2 27.9 28.4 28.7 29.0 29.2 29.3 29.5 29.8 29.8 28.4 26.8 24.7 22.9 26.6 26.2 27.7 29.3 32.5 34.0 33.3 34.1 34.2 32.2 29.7 28.2 27.5 27.5 28.3 29.1 29.4 29.5 29.5 29.6 29.7 29.2 27.7 26.0 23.9 22.4 27.0 26.9 27.9 28.7 30.0 32.7 35.1 35.5 33.3 31.4 30.2 28.6 26.8 26.5 27.8 29.2 29.6 29.8 29.9 30.0 29.7 28.8 27.1 25.3 23.4 21.9 26.9 26.4 26.3 26.9 27.5 30.1 32.3 32.0 30.6 30.0 28.6 26.0 24.6 25.3 27.6 29.7 29.9 29.5 29.1 28.9 28.6 27.7 26.3 24.4 22.7 21.6 26.0 25.1 24.4 25.2 25.4 27.1 28.8 28.5 28.3 28.3 25.7 22.9 22.8 24.8 27.8 29.9 29.4 28.4 27.4 26.9 26.6 25.7 24.5 22.9 21.8 21.2 
</DataArray>
</PointData>
</Piece>
</ImageData>
</VTKFile>
