<?xml version="1.0"?>
<VTKFile type="ImageData" version="1.0" byte_order="LittleEndian" header_type="UInt64">
<ImageData WholeExtent="0 25 25 50 1 1"
 Origin="0.0000 15.0000 0.0000" Spacing="0.6000 0.6000 0.6000">
<Piece Extent="0 25 25 50 1 1">
<PointData>
<DataArray Name="TEMPERATURE" NumberOfComponents="1" type="Float32" format="ascii">
24.6 25.9 27.1 27.9 28.5 28.5 28.4 28.4 28.0 27.5 27.9 28.6 29.0 29.6 30.7 32.5 36.6 43.2 45.9 39.4 33.7 36.7 42.2 46.0 62.2 71.5 25.1 26.1 27.0 27.9 28.4 28.3 28.6 28.7 28.1 27.4 27.5 27.6 27.7 28.3 29.4 30.5 32.4 38.3 47.5 46.2 36.0 31.7 33.7 37.1 49.3 79.8 25.2 26.3 27.4 28.3 28.7 28.3 28.6 28.8 28.3 27.5 27.4 27.3 27.3 27.6 28.2 28.7 29.3 33.6 45.5 50.8 42.2 33.6 31.4 33.4 39.2 54.3 25.0 26.3 27.7 28.5 28.6 28.1 28.5 29.0 28.8 28.1 27.9 27.7 27.5 27.5 27.8 28.0 28.9 33.7 45.8 54.1 48.6 37.4 31.7 32.4 35.6 38.7 24.8 26.2 27.7 28.4 28.5 28.0 28.3 29.1 29.4 29.1 28.9 28.4 27.9 27.8 28.0 28.2 29.9 37.1 50.0 59.3 55.8 43.8 35.0 32.5 34.1 35.6 24.9 26.2 27.5 28.0 28.3 28.2 28.4 29.5 30.4 30.6 30.3 29.5 28.8 28.4 28.4 28.6 31.3 41.6 57.8 67.6 64.0 51.5 41.5 37.3 35.1 34.5 25.2 26.5 27.5 27.7 27.9 28.0 28.6 30.0 31.3 31.7 31.3 30.4 29.8 29.4 29.3 29.3 31.6 41.8 59.9 71.8 69.1 55.7 45.3 43.9 40.6 36.7 25.8 26.9 27.6 27.5 27.5 27.7 28.5 30.1 31.2 31.4 30.9 30.1 30.1 30.2 30.5 30.5 31.0 36.0 49.1 61.2 62.4 52.2 43.9 46.2 45.5 41.1 26.0 27.1 27.7 27.3 27.1 27.3 28.1 29.6 30.5 30.3 29.6 28.9 29.1 29.9 30.9 31.6 31.4 31.5 35.3 42.0 45.9 42.9 40.0 43.5 46.0 44.8 26.2 27.4 28.0 27.3 27.0 27.0 27.7 29.1 30.1 29.9 29.3 28.6 28.5 29.2 30.9 32.7 32.9 31.2 29.8 30.8 34.0 36.1 37.3 40.2 43.8 47.0 26.0 27.5 28.1 27.2 27.0 26.9 27.6 29.1 30.2 30.4 30.2 29.6 29.1 29.3 30.7 32.8 33.8 32.7 30.7 29.4 30.7 34.5 37.9 40.0 42.2 46.7 25.9 27.5 28.2 27.3 27.1 27.1 27.8 29.1 30.5 31.4 31.5 30.8 30.0 29.6 30.2 31.8 33.2 33.2 32.2 30.8 30.8 34.5 39.2 41.0 41.0 43.0 26.8 28.0 28.7 27.8 27.3 27.4 28.2 29.5 31.0 32.2 32.2 31.2 30.5 30.0 30.1 30.9 32.1 32.6 32.6 31.7 31.0 33.7 37.8 38.4 36.4 36.3 28.3 29.2 29.5 28.4 27.7 27.7 28.4 29.6 30.8 32.0 31.9 30.8 30.1 29.7 30.0 30.9 31.9 32.5 32.5 31.9 31.1 32.0 34.0 33.6 31.6 31.5 29.0 29.9 29.9 28.8 28.2 28.1 28.5 29.4 29.9 30.2 30.1 29.3 29.0 29.0 29.8 31.2 32.5 33.1 33.1 32.3 31.3 31.1 31.3 30.5 29.3 29.7 28.6 29.6 29.9 29.3 29.2 29.0 28.8 28.7 28.5 28.0 27.7 27.8 28.5 29.6 30.9 32.5 33.8 34.3 34.5 33.9 32.8 32.0 31.4 29.9 28.1 28.3 27.3 28.7 29.3 29.5 29.9 29.8 29.4 28.6 27.8 27.1 26.9 27.5 28.9 30.6 32.2 33.5 34.4 34.7 35.1 35.4 34.6 33.3 32.2 30.6 28.7 27.8 26.3 28.1 29.1 29.5 30.2 30.3 30.1 28.9 27.9 27.5 27.6 28.4 29.7 31.4 32.9 33.7 34.1 34.3 34.8 35.5 35.1 33.5 31.9 31.1 30.1 28.6 25.1 27.3 28.5 28.8 29.4 29.9 30.6 29.9 29.1 28.6 28.7 29.3 30.2 31.2 32.1 32.6 32.9 33.3 33.9 34.5 34.2 32.6 30.9 30.5 30.3 29.1 24.0 26.3 28.1 28.4 29.2 30.3 32.0 32.1 31.2 30.3 30.1 30.1 30.3 30.6 30.7 31.1 31.5 32.0 32.7 33.1 33.0 31.7 30.2 29.9 30.1 29.6 23.3 25.3 27.1 28.2 29.8 31.7 33.6 33.9 32.5 31.0 30.3 30.0 29.8 29.6 29.5 29.7 29.9 30.4 31.3 32.0 32.4 31.7 30.6 30.3 30.7 31.1 23.2 24.9 26.7 28.0 29.3 31.1 32.9 33.4 31.8 30.1 29.5 29.2 29.0 28.7 28.5 28.5 28.4 28.7 29.6 31.0 32.1 32.6 32.2 31.6 31.6 32.0 23.4 24.8 26.8 28.1 28.8 29.5 29.9 30.2 29.2 28.0 28.2 28.5 28.8 28.7 28.5 28.3 28.0 27.8 28.4 29.7 31.3 32.9 33.9 33.1 32.2 32.2 24.2 25.3 26.9 27.9 28.4 28.1 27.2 27.1 26.8 26.5 27.2 28.2 29.3 29.8 29.8 29.3 28.6 28.1 28.2 29.0 30.6 32.8 34.5 33.7 31.8 31.5 23.9 25.2 26.8 27.6 27.5 26.7 25.4 24.8 24.7 25.0 25.8 26.7 27.7 28.5 29.3 29.7 29.3 28.6 28.5 28.9 29.9 31.3 32.9 33.7 32.5 31.1 22.2 23.8 25.8 26.9 27.0 26.0 24.4 23.5 23.4 23.7 24.2 24.5 25.2 26.0 27.4 28.8 28.9 28.3 28.4 28.6 29.0 29.6 31.4 33.6 33.4 31.2 
</DataArray>
</PointData>
</Piece>
</ImageData>
</VTKFile>
