<?xml version="1.0"?>
<VTKFile type="ImageData" version="1.0" byte_order="LittleEndian" header_type="UInt64">
<ImageData WholeExtent="25 50 0 25 0 15"
 Origin="15.0000 0.0000 0.0000" Spacing="0.6000 0.6000 0.6000">
<Piece Extent="25 50 0 25 0 15">
<PointData>
<DataArray Name="TEMPERATURE" NumberOfComponents="1" type="Float32" format="ascii">
20.0 20.1 20.1 20.1 20.1 20.1 20.1 20.1 20.1 20.1 20.1 20.1 20.1 20.0 20.0 20.0 20.0 20.0 20.0 20.0 20.0 20.0 20.0 20.0 20.0 20.0 20.1 20.1 20.1 20.1 20.1 20.2 20.2 20.1 20.1 20.1 20.1 20.1 20.1 20.1 20.1 20.1 20.1 20.1 20.1 20.1 20.1 20.1 20.1 20.0 20.0 20.0 20.2 20.2 20.2 20.3 20.3 20.3 20.3 20.3 20.3 20.3 20.2 20.2 20.2 20.2 20.1 20.1 20.1 20.1 20.1 20.1 20.1 20.1 20.1 20.1 20.0 20.0 20.3 20.3 20.3 20.4 20.4 20.4 20.4 20.4 20.4 20.4 20.3 20.3 20.3 20.2 20.2 20.2 20.2 20.2 20.2 20.2 20.2 20.2 20.1 20.1 20.1 20.0 20.3 20.4 20.4 20.5 20.5 20.5 20.5 20.5 20.5 20.5 20.4 20.4 20.3 20.3 20.3 20.3 20.3 20.3 20.3 20.2 20.2 20.2 20.2 20.1 20.1 20.0 20.4 20.5 20.5 20.6 20.6 20.6 20.6 20.7 20.6 20.6 20.5 20.5 20.4 20.4 20.4 20.4 20.4 20.4 20.4 20.3 20.3 20.2 20.2 20.1 20.1 20.0 20.5 20.6 20.7 20.7 20.7 20.8 20.8 20.8 20.8 20.7 20.7 20.6 20.6 20.5 20.5 20.5 20.5 20.5 20.5 20.4 20.3 20.2 20.2 20.1 20.1 20.0 20.7 20.7 20.8 20.9 20.9 21.0 21.0 21.0 20.9 20.9 20.8 20.7 20.7 20.7 20.6 20.6 20.6 20.6 20.5 20.5 20.4 20.3 20.2 20.1 20.1 20.0 20.8 20.9 21.0 21.1 21.1 21.2 21.2 21.1 21.1 21.1 21.0 20.9 20.8 20.8 20.8 20.8 20.7 20.7 20.6 20.5 20.4 20.3 20.2 20.1 20.1 20.0 20.9 21.0 21.1 21.2 21.4 21.4 21.5 21.4 21.3 21.2 21.1 21.1 21.0 21.0 20.9 20.9 20.8 20.7 20.6 20.5 20.4 20.3 20.2 20.2 20.1 20.0 21.1 21.2 21.3 21.4 21.6 21.7 21.8 21.7 21.6 21.4 21.3 21.3 21.2 21.1 21.1 21.0 20.9 20.8 20.7 20.6 20.5 20.4 20.3 20.2 20.1 20.0 21.2 21.3 21.4 21.6 21.8 22.0 22.1 22.1 21.8 21.6 21.5 21.5 21.4 21.4 21.3 21.2 21.0 20.8 20.7 20.6 20.5 20.4 20.3 20.2 20.1 20.1 21.4 21.5 21.7 21.9 22.1 22.4 22.5 22.4 22.2 22.0 21.9 21.7 21.7 21.6 21.5 21.3 21.1 20.9 20.8 20.7 20.5 20.4 20.3 20.2 20.1 20.1 21.6 21.8 21.9 22.1 22.4 22.8 22.9 22.7 22.6 22.4 22.3 22.1 21.9 21.8 21.6 21.3 21.2 21.0 20.9 20.7 20.6 20.4 20.3 20.2 20.1 20.1 21.9 22.0 22.2 22.4 22.8 23.2 23.5 23.2 23.0 22.9 22.7 22.4 22.2 22.0 21.7 21.5 21.3 21.1 20.9 20.8 20.6 20.5 20.3 20.2 20.1 20.1 22.1 22.4 22.6 22.8 23.2 23.8 24.2 23.8 23.5 23.3 23.1 22.8 22.5 22.1 21.9 21.6 21.4 21.2 21.0 20.8 20.6 20.5 20.4 20.2 20.1 20.1 22.5 22.8 23.1 23.4 24.0 24.7 25.1 24.8 24.3 23.9 23.6 23.2 22.7 22.3 22.0 21.7 21.5 21.2 21.0 20.8 20.7 20.5 20.4 20.3 20.1 20.1 22.9 23.3 23.6 24.0 24.8 25.6 26.0 26.0 25.5 24.7 24.1 23.5 23.0 22.5 22.2 21.9 21.6 21.4 21.1 20.9 20.7 20.6 20.5 20.3 20.2 20.1 23.4 23.8 24.3 24.9 25.6 26.6 27.3 27.2 26.6 25.6 24.6 24.0 23.5 23.0 22.5 22.1 21.8 21.6 21.3 21.0 20.8 20.7 20.6 20.4 20.2 20.1 24.1 24.6 25.2 26.6 28.5 30.3 31.2 30.9 29.4 27.2 25.5 24.7 24.1 23.4 22.8 22.3 22.0 21.8 21.5 21.2 20.9 20.8 20.6 20.4 20.2 20.1 25.4 26.4 27.4 31.5 34.1 33.3 34.4 39.5 38.3 30.9 26.5 25.4 24.6 23.7 23.0 22.5 22.1 21.9 21.6 21.3 21.0 20.8 20.6 20.4 20.2 20.2 26.6 28.5 30.1 35.6 40.1 20.0 20.0 46.2 41.6 32.6 27.4 25.9 24.8 23.8 23.1 22.6 22.1 21.8 21.5 21.2 21.0 20.8 20.6 20.4 20.3 20.2 26.4 28.6 30.9 34.6 37.2 20.0 20.0 38.5 35.5 30.4 27.6 26.0 24.6 23.6 23.0 22.5 22.0 21.7 21.5 21.2 21.0 20.8 20.6 20.4 20.3 20.2 25.5 27.0 29.0 31.4 33.2 34.2 34.6 33.7 30.7 27.7 26.5 25.3 24.2 23.3 22.8 22.4 22.0 21.6 21.4 21.2 21.0 20.8 20.6 20.4 20.2 20.1 24.9 25.7 26.8 28.3 30.2 31.3 31.7 30.5 27.6 25.7 24.9 24.2 23.6 23.0 22.5 22.2 21.9 21.5 21.3 21.1 20.9 20.7 20.5 20.4 20.2 20.1 23.3 24.7 25.5 26.5 27.0 27.6 28.0 27.3 25.8 24.7 24.1 23.5 23.0 22.6 22.2 21.9 21.6 21.4 21.2 21.0 20.8 20.6 20.5 20.3 20.2 20.1 20.0 20.0 20.1 20.1 20.1 20.1 20.1 20.1 20.1 20.1 20.1 20.1 20.1 20.0 20.0 20.0 20.0 20.0 20.0 20.0 20.0 20.0 20.0 20.0 20.0 20.0 20.1 20.1 20.1 20.1 20.1 20.1 20.1 20.1 20.1 20.1 20.1 20.1 20.1 20.1 20.1 20.1 20.1 20.1 20.1 20.1 20.1 20.1 20.0 20.0 20.0 20.0 20.1 20.2 20.2 20.2 20.2 20.2 20.2 20.2 20.2 20.2 20.2 20.2 20.2 20.2 20.1 20.1 20.1 20.1 20.1 20.1 20.1 20.1 20.1 20.1 20.0 20.0 20.2 20.3 20.3 20.3 20.4 20.4 20.4 20.3 20.3 20.3 20.3 20.3 20.3 20.2 20.2 20.2 20.2 20.2 20.2 20.2 20.2 20.1 20.1 20.1 20.0 20.0 20.3 20.4 20.4 20.5 20.5 20.5 20.5 20.5 20.5 20.5 20.4 20.4 20.3 20.3 20.3 20.3 20.3 20.3 20.2 20.2 20.2 20.2 20.1 20.1 20.0 20.0 20.4 20.5 20.5 20.6 20.6 20.6 20.6 20.7 20.6 20.6 20.5 20.5 20.4 20.4 20.4 20.4 20.4 20.3 20.3 20.3 20.3 20.2 20.2 20.1 20.0 20.0 20.5 20.6 20.7 20.7 20.8 20.8 20.8 20.8 20.8 20.7 20.6 20.6 20.6 20.5 20.5 20.5 20.5 20.5 20.4 20.4 20.3 20.2 20.2 20.1 20.1 20.0 20.7 20.7 20.8 20.9 21.0 21.0 21.0 21.0 20.9 20.9 20.8 20.7 20.7 20.7 20.6 20.6 20.6 20.6 20.5 20.4 20.3 20.3 20.2 20.1 20.1 20.0 20.8 20.9 21.0 21.1 21.2 21.2 21.2 21.2 21.1 21.0 20.9 20.9 20.8 20.8 20.8 20.7 20.7 20.7 20.6 20.5 20.4 20.3 20.2 20.1 20.1 20.0 20.9 21.0 21.2 21.3 21.4 21.5 21.5 21.4 21.3 21.2 21.1 21.0 21.0 20.9 20.9 20.9 20.8 20.7 20.6 20.5 20.4 20.3 20.2 20.1 20.1 20.0 21.1 21.2 21.3 21.5 21.7 21.8 21.8 21.7 21.6 21.4 21.3 21.2 21.2 21.1 21.1 21.0 20.9 20.8 20.6 20.5 20.4 20.3 20.3 20.2 20.1 20.0 21.2 21.3 21.5 21.7 21.9 22.1 22.2 22.1 21.9 21.7 21.5 21.5 21.4 21.3 21.3 21.2 21.0 20.8 20.7 20.6 20.5 20.4 20.3 20.2 20.1 20.0 21.4 21.5 21.7 21.9 22.2 22.5 22.6 22.4 22.2 22.0 21.9 21.7 21.7 21.6 21.4 21.2 21.0 20.9 20.8 20.6 20.5 20.4 20.3 20.2 20.1 20.0 21.6 21.8 21.9 22.2 22.5 22.9 23.0 22.8 22.6 22.5 22.3 22.1 22.0 21.8 21.6 21.3 21.1 21.0 20.8 20.7 20.6 20.4 20.3 20.2 20.1 20.1 21.9 22.1 22.3 22.5 22.9 23.4 23.7 23.4 23.1 22.9 22.7 22.5 22.2 22.0 21.7 21.5 21.3 21.1 20.9 20.7 20.6 20.4 20.3 20.2 20.1 20.1 22.2 22.4 22.7 23.0 23.4 24.1 24.5 24.1 23.7 23.4 23.2 22.8 22.5 22.2 21.9 21.6 21.4 21.2 21.0 20.8 20.6 20.5 20.3 20.2 20.1 20.1 22.6 22.9 23.2 23.6 24.2 25.0 25.4 25.2 24.5 24.0 23.6 23.2 22.8 22.4 22.0 21.7 21.5 21.2 21.0 20.8 20.6 20.5 20.4 20.3 20.1 20.1 23.0 23.4 23.8 24.4 25.1 26.1 27.1 26.8 25.6 24.8 24.2 23.6 23.1 22.6 22.2 21.9 21.6 21.3 21.1 20.9 20.7 20.6 20.5 20.3 20.2 20.1 23.5 23.9 24.6 25.9 26.8 28.1 29.5 28.9 27.1 25.7 24.7 24.1 23.5 23.0 22.5 22.1 21.8 21.5 21.3 21.0 20.8 20.7 20.6 20.4 20.2 20.1 24.2 24.8 25.7 30.4 34.5 35.6 36.7 38.4 35.2 28.3 25.6 24.7 24.2 23.5 22.8 22.4 22.0 21.7 21.5 21.2 21.0 20.8 20.6 20.4 20.2 20.1 25.3 26.4 28.8 39.7 72.5 117.0 126.2 102.4 69.4 40.0 27.0 25.6 24.8 23.9 23.1 22.6 22.2 21.9 21.6 21.3 21.0 20.8 20.6 20.4 20.2 20.1 27.1 29.0 32.0 43.3 109.8 298.3 394.1 201.5 75.4 42.9 28.1 26.3 25.0 24.0 23.3 22.7 22.2 21.9 21.6 21.2 21.0 20.8 20.6 20.4 20.2 20.1 27.4 30.0 33.1 39.4 83.2 245.6 382.6 185.3 48.9 33.3 28.1 26.4 24.8 23.8 23.1 22.6 22.1 21.7 21.5 21.2 21.0 20.8 20.6 20.4 20.2 20.1 26.0 28.1 31.2 35.6 48.1 80.6 118.6 87.2 39.9 28.6 26.6 25.4 24.3 23.4 22.8 22.4 22.0 21.7 21.4 21.2 21.0 20.8 20.6 20.4 20.2 20.1 25.0 26.1 27.7 30.8 33.7 34.9 36.3 37.3 32.2 26.1 25.1 24.3 23.7 23.0 22.5 22.2 21.9 21.6 21.3 21.1 20.9 20.7 20.5 20.3 20.2 20.1 23.3 25.0 25.9 27.0 28.0 28.5 28.7 28.4 26.7 25.0 24.3 23.6 23.1 22.7 22.2 21.9 21.6 21.4 21.2 21.0 20.8 20.6 20.5 20.3 20.2 20.1 20.0 20.0 20.0 20.1 20.1 20.1 20.0 20.0 20.1 20.1 20.0 20.0 20.0 20.0 20.0 20.0 20.0 20.0 20.0 20.0 20.0 20.0 20.0 20.0 20.0 20.0 20.1 20.1 20.1 20.1 20.1 20.1 20.1 20.1 20.1 20.1 20.1 20.1 20.1 20.1 20.1 20.1 20.1 20.1 20.0 20.0 20.0 20.0 20.0 20.0 20.0 20.0 20.1 20.1 20.2 20.2 20.2 20.2 20.2 20.2 20.2 20.2 20.2 20.2 20.2 20.2 20.1 20.1 20.1 20.1 20.1 20.1 20.1 20.1 20.1 20.0 20.0 20.0 20.2 20.2 20.3 20.3 20.3 20.3 20.3 20.3 20.3 20.3 20.3 20.3 20.2 20.2 20.2 20.2 20.2 20.2 20.2 20.1 20.1 20.1 20.1 20.1 20.0 20.0 20.3 20.3 20.4 20.4 20.4 20.5 20.5 20.5 20.5 20.4 20.4 20.3 20.3 20.3 20.3 20.3 20.3 20.2 20.2 20.2 20.2 20.2 20.1 20.1 20.0 20.0 20.4 20.5 20.5 20.5 20.6 20.6 20.6 20.6 20.6 20.6 20.5 20.4 20.4 20.4 20.4 20.4 20.3 20.3 20.3 20.3 20.2 20.2 20.1 20.1 20.0 20.0 20.5 20.6 20.6 20.7 20.8 20.8 20.8 20.8 20.8 20.7 20.6 20.6 20.5 20.5 20.5 20.5 20.4 20.4 20.4 20.3 20.3 20.2 20.1 20.1 20.0 20.0 20.6 20.7 20.8 20.9 21.0 21.0 21.0 21.0 20.9 20.8 20.8 20.7 20.7 20.6 20.6 20.6 20.5 20.5 20.5 20.4 20.3 20.2 20.2 20.1 20.1 20.0 20.7 20.8 21.0 21.1 21.2 21.2 21.2 21.2 21.1 21.0 20.9 20.8 20.8 20.7 20.7 20.7 20.6 20.6 20.5 20.4 20.3 20.2 20.2 20.1 20.1 20.0 20.9 21.0 21.1 21.3 21.4 21.5 21.5 21.5 21.3 21.2 21.1 21.0 20.9 20.9 20.8 20.8 20.8 20.7 20.5 20.4 20.3 20.3 20.2 20.1 20.1 20.0 21.0 21.1 21.3 21.5 21.7 21.8 21.8 21.8 21.6 21.4 21.3 21.2 21.1 21.1 21.0 21.0 20.9 20.7 20.6 20.5 20.4 20.3 20.2 20.1 20.1 20.0 21.2 21.3 21.5 21.7 21.9 22.2 22.3 22.1 21.9 21.7 21.5 21.4 21.4 21.3 21.2 21.1 20.9 20.8 20.6 20.5 20.4 20.3 20.2 20.2 20.1 20.0 21.4 21.5 21.7 21.9 22.2 22.5 22.7 22.6 22.3 22.1 21.9 21.7 21.7 21.6 21.4 21.2 21.0 20.8 20.7 20.6 20.5 20.4 20.3 20.2 20.1 20.0 21.7 21.8 22.0 22.2 22.6 23.1 23.2 23.1 22.8 22.5 22.3 22.1 22.0 21.8 21.6 21.3 21.1 20.9 20.8 20.6 20.5 20.4 20.3 20.2 20.1 20.0 22.0 22.2 22.4 22.6 23.2 23.8 24.1 23.8 23.3 23.0 22.7 22.6 22.3 22.0 21.7 21.4 21.2 21.0 20.9 20.7 20.5 20.4 20.3 20.2 20.1 20.0 22.3 22.6 22.8 23.2 23.8 24.6 25.1 24.8 24.1 23.6 23.2 23.0 22.6 22.2 21.9 21.6 21.3 21.1 20.9 20.7 20.6 20.4 20.3 20.2 20.1 20.0 22.7 23.1 23.5 24.2 24.9 25.7 26.6 26.2 25.0 24.3 23.8 23.4 22.9 22.4 22.0 21.7 21.5 21.2 21.0 20.8 20.6 20.4 20.3 20.2 20.1 20.1 23.2 23.7 24.3 26.3 27.3 28.7 33.2 31.9 26.7 25.1 24.5 23.9 23.3 22.7 22.3 21.9 21.6 21.3 21.1 20.8 20.7 20.5 20.4 20.3 20.2 20.1 23.8 24.6 25.8 32.2 34.0 33.4 39.6 37.8 30.1 26.3 25.1 24.3 23.7 23.1 22.5 22.1 21.7 21.4 21.2 21.0 20.8 20.7 20.5 20.3 20.2 20.1 24.6 25.8 29.5 46.8 52.8 47.9 53.4 52.9 41.0 29.1 26.0 24.9 24.2 23.5 22.9 22.4 21.9 21.6 21.4 21.1 20.9 20.7 20.5 20.3 20.2 20.1 25.5 27.5 34.5 68.5 124.5 166.5 187.2 176.3 111.1 46.2 27.8 25.9 25.1 24.1 23.3 22.7 22.2 21.9 21.6 21.2 21.0 20.7 20.5 20.3 20.1 20.1 27.5 30.9 38.5 75.3 190.6 323.6 400.7 318.3 139.4 50.8 29.3 27.0 25.6 24.4 23.5 22.9 22.4 22.0 21.6 21.3 20.9 20.7 20.5 20.3 20.2 20.1 28.2 32.0 39.2 66.7 163.4 286.2 388.2 284.3 85.4 36.8 29.1 27.2 25.4 24.1 23.4 22.8 22.3 21.9 21.6 21.2 20.9 20.7 20.5 20.3 20.2 20.1 26.6 29.5 39.5 60.9 94.2 127.1 178.4 145.0 53.4 30.5 27.2 25.9 24.7 23.7 23.0 22.6 22.2 21.8 21.5 21.2 21.0 20.7 20.5 20.3 20.1 20.1 25.2 27.2 34.4 46.7 48.5 44.6 53.1 52.2 35.9 27.0 25.5 24.7 23.9 23.3 22.7 22.3 22.0 21.7 21.4 21.1 20.9 20.7 20.4 20.3 20.1 20.1 23.4 25.4 27.0 30.5 31.9 30.6 30.4 29.6 27.5 25.6 24.7 24.0 23.4 22.9 22.4 22.1 21.7 21.5 21.2 21.0 20.8 20.6 20.4 20.3 20.1 20.1 20.0 20.0 20.0 20.1 20.1 20.1 20.1 20.1 20.1 20.1 20.1 20.0 20.0 20.0 20.0 20.0 20.0 20.0 20.0 20.0 20.0 20.0 20.0 20.0 20.0 20.0 20.1 20.1 20.1 20.1 20.1 20.1 20.1 20.1 20.1 20.1 20.1 20.1 20.1 20.1 20.1 20.1 20.1 20.0 20.0 20.0 20.0 20.0 20.0 20.0 20.0 20.0 20.1 20.1 20.2 20.2 20.2 20.2 20.2 20.2 20.2 20.2 20.2 20.2 20.1 20.1 20.1 20.1 20.1 20.1 20.1 20.1 20.1 20.1 20.1 20.0 20.0 20.0 20.2 20.2 20.3 20.3 20.3 20.3 20.3 20.4 20.4 20.3 20.3 20.2 20.2 20.2 20.2 20.2 20.2 20.2 20.1 20.1 20.1 20.1 20.1 20.1 20.0 20.0 20.3 20.3 20.4 20.4 20.4 20.4 20.5 20.5 20.5 20.4 20.4 20.3 20.3 20.3 20.3 20.3 20.2 20.2 20.2 20.2 20.2 20.1 20.1 20.1 20.0 20.0 20.4 20.4 20.5 20.6 20.6 20.6 20.6 20.7 20.7 20.6 20.5 20.4 20.4 20.4 20.4 20.3 20.3 20.3 20.3 20.3 20.2 20.2 20.1 20.1 20.0 20.0 20.5 20.6 20.6 20.7 20.8 20.8 20.8 20.8 20.8 20.7 20.6 20.6 20.5 20.5 20.5 20.4 20.4 20.4 20.3 20.3 20.3 20.2 20.1 20.1 20.0 20.0 20.6 20.7 20.8 20.9 21.0 21.0 21.0 21.0 21.0 20.9 20.8 20.7 20.7 20.6 20.6 20.5 20.5 20.5 20.4 20.4 20.3 20.2 20.2 20.1 20.1 20.0 20.7 20.8 20.9 21.0 21.2 21.2 21.2 21.3 21.2 21.0 20.9 20.9 20.8 20.7 20.7 20.6 20.6 20.6 20.5 20.4 20.3 20.2 20.2 20.1 20.1 20.0 20.9 21.0 21.1 21.2 21.4 21.5 21.5 21.5 21.4 21.2 21.1 21.0 20.9 20.9 20.8 20.8 20.7 20.6 20.5 20.4 20.3 20.3 20.2 20.1 20.1 20.0 21.0 21.1 21.3 21.5 21.6 21.8 21.9 21.9 21.7 21.5 21.3 21.2 21.1 21.0 21.0 21.0 20.8 20.7 20.6 20.4 20.4 20.3 20.2 20.1 20.1 20.0 21.2 21.3 21.5 21.7 21.9 22.1 22.3 22.2 22.0 21.8 21.6 21.4 21.4 21.3 21.2 21.1 20.9 20.7 20.6 20.5 20.4 20.3 20.2 20.1 20.1 20.0 21.4 21.6 21.8 22.0 22.2 22.5 22.7 22.7 22.4 22.1 21.9 21.8 21.7 21.6 21.4 21.2 21.0 20.8 20.7 20.6 20.4 20.3 20.2 20.2 20.1 20.0 21.7 21.9 22.1 22.3 22.7 23.1 23.3 23.2 22.9 22.5 22.3 22.2 22.0 21.8 21.6 21.3 21.1 20.9 20.8 20.6 20.5 20.4 20.2 20.2 20.1 20.0 22.0 22.3 22.5 22.8 23.3 23.9 24.3 24.0 23.4 23.0 22.8 22.6 22.4 22.0 21.7 21.4 21.2 21.0 20.9 20.7 20.5 20.4 20.3 20.2 20.1 20.0 22.4 22.8 23.2 23.5 24.0 24.7 25.3 25.1 24.3 23.7 23.4 23.0 22.6 22.2 21.9 21.6 21.4 21.1 20.9 20.7 20.6 20.4 20.3 20.2 20.1 20.0 22.8 23.4 24.4 25.2 25.5 26.5 27.5 26.9 25.4 24.6 24.0 23.5 23.0 22.5 22.1 21.7 21.5 21.2 21.0 20.8 20.6 20.4 20.3 20.2 20.1 20.1 23.4 24.1 26.0 28.5 28.8 31.4 36.8 34.0 27.5 25.6 24.8 24.0 23.4 22.8 22.4 22.0 21.6 21.3 21.1 20.9 20.7 20.5 20.4 20.2 20.1 20.1 24.3 26.1 31.5 39.1 37.3 39.0 48.5 44.6 33.2 27.2 25.5 24.5 23.8 23.2 22.6 22.2 21.8 21.5 21.2 21.0 20.8 20.6 20.4 20.3 20.2 20.1 27.3 31.2 47.7 70.9 64.5 61.5 76.1 65.6 42.4 29.6 26.6 25.2 24.3 23.6 23.0 22.5 22.0 21.7 21.4 21.1 20.9 20.7 20.5 20.3 20.2 20.1 30.5 38.1 69.2 127.7 161.9 188.4 221.9 200.4 111.9 42.3 29.0 26.4 25.3 24.3 23.5 22.9 22.3 21.9 21.6 21.3 21.0 20.7 20.5 20.3 20.1 20.1 31.6 40.7 73.9 156.7 268.2 360.6 413.9 361.8 185.8 57.0 32.2 27.8 26.1 24.9 23.9 23.2 22.5 22.1 21.7 21.3 21.0 20.7 20.5 20.3 20.2 20.1 30.9 36.6 65.9 142.0 252.6 349.6 412.9 344.3 164.0 59.5 34.6 28.1 26.1 24.7 23.8 23.1 22.6 22.1 21.6 21.3 21.0 20.7 20.5 20.3 20.2 20.1 28.7 32.4 57.8 105.4 149.1 185.9 229.2 191.0 94.6 48.6 31.6 26.6 25.3 24.2 23.5 22.9 22.4 21.9 21.5 21.2 20.9 20.7 20.5 20.3 20.2 20.1 26.5 29.2 40.9 58.3 68.3 69.5 75.9 65.6 43.0 33.1 26.7 25.1 24.3 23.6 23.1 22.6 22.2 21.8 21.5 21.1 20.9 20.6 20.4 20.3 20.1 20.1 24.0 26.0 27.7 32.3 37.1 35.7 32.4 30.5 28.2 26.5 25.2 24.4 23.7 23.1 22.7 22.3 22.0 21.6 21.3 21.0 20.8 20.6 20.4 20.2 20.1 20.1 20.0 20.0 20.1 20.1 20.1 20.1 20.1 20.1 20.1 20.1 20.1 20.0 20.0 20.0 20.0 20.0 20.0 20.0 20.0 20.0 20.0 20.0 20.0 20.0 20.0 20.0 20.1 20.1 20.1 20.1 20.1 20.1 20.1 20.1 20.1 20.1 20.1 20.1 20.1 20.1 20.1 20.1 20.1 20.1 20.1 20.1 20.0 20.0 20.0 20.0 20.0 20.0 20.2 20.2 20.2 20.2 20.2 20.2 20.2 20.2 20.2 20.2 20.2 20.2 20.1 20.1 20.1 20.1 20.1 20.1 20.1 20.1 20.1 20.1 20.1 20.0 20.0 20.0 20.2 20.3 20.3 20.4 20.4 20.4 20.4 20.4 20.4 20.3 20.3 20.3 20.2 20.2 20.2 20.2 20.2 20.2 20.2 20.2 20.1 20.1 20.1 20.1 20.0 20.0 20.4 20.4 20.5 20.5 20.5 20.5 20.5 20.6 20.5 20.5 20.4 20.4 20.3 20.3 20.3 20.3 20.3 20.2 20.2 20.2 20.2 20.1 20.1 20.1 20.0 20.0 20.5 20.5 20.6 20.7 20.6 20.6 20.7 20.7 20.7 20.6 20.5 20.5 20.4 20.4 20.4 20.4 20.3 20.3 20.3 20.3 20.2 20.2 20.1 20.1 20.0 20.0 20.6 20.6 20.7 20.8 20.9 20.8 20.8 20.9 20.9 20.7 20.6 20.6 20.6 20.5 20.5 20.5 20.4 20.4 20.4 20.3 20.3 20.2 20.2 20.1 20.0 20.0 20.7 20.8 20.9 21.0 21.1 21.0 21.0 21.1 21.1 20.9 20.8 20.8 20.7 20.7 20.6 20.6 20.5 20.5 20.4 20.4 20.3 20.2 20.2 20.1 20.1 20.0 20.9 21.0 21.1 21.2 21.3 21.3 21.3 21.3 21.3 21.1 21.0 20.9 20.9 20.8 20.7 20.7 20.7 20.6 20.5 20.4 20.3 20.3 20.2 20.1 20.1 20.0 21.0 21.1 21.3 21.5 21.5 21.5 21.6 21.6 21.5 21.3 21.2 21.1 21.0 20.9 20.9 20.9 20.8 20.7 20.6 20.5 20.4 20.3 20.2 20.1 20.1 20.0 21.1 21.3 21.5 21.7 21.8 21.8 21.9 22.0 21.8 21.6 21.4 21.3 21.2 21.1 21.1 21.0 20.9 20.8 20.6 20.5 20.4 20.3 20.2 20.1 20.1 20.0 21.3 21.4 21.7 22.0 22.1 22.1 22.3 22.4 22.2 21.9 21.7 21.5 21.5 21.4 21.3 21.1 21.0 20.8 20.7 20.5 20.4 20.3 20.2 20.1 20.1 20.0 21.5 21.7 21.9 22.2 22.4 22.5 22.7 22.8 22.5 22.2 22.0 21.9 21.8 21.6 21.4 21.2 21.1 20.9 20.7 20.6 20.5 20.4 20.3 20.2 20.1 20.0 21.8 21.9 22.2 22.5 22.8 23.1 23.3 23.3 22.9 22.6 22.4 22.2 22.1 21.8 21.6 21.3 21.1 21.0 20.8 20.7 20.5 20.4 20.3 20.2 20.1 20.0 22.1 22.3 22.6 22.9 23.3 23.7 24.1 24.1 23.5 23.1 22.9 22.6 22.4 22.1 21.8 21.5 21.3 21.1 20.9 20.8 20.6 20.4 20.3 20.2 20.1 20.0 22.5 23.3 23.9 23.8 24.0 24.4 25.0 25.0 24.4 23.8 23.5 23.1 22.7 22.3 21.9 21.7 21.4 21.2 21.0 20.8 20.6 20.5 20.3 20.2 20.1 20.1 23.0 24.4 25.9 25.9 25.5 26.5 27.4 26.7 25.5 24.6 24.1 23.5 23.0 22.5 22.2 21.9 21.6 21.3 21.1 20.9 20.7 20.5 20.3 20.2 20.1 20.1 23.8 25.5 28.5 29.3 27.2 29.5 33.1 30.7 27.3 25.7 24.8 24.1 23.4 22.9 22.5 22.1 21.7 21.4 21.2 20.9 20.7 20.5 20.4 20.2 20.1 20.1 25.0 28.8 36.2 39.0 31.6 35.9 45.8 42.5 34.8 28.5 25.8 24.6 23.9 23.3 22.8 22.3 21.9 21.6 21.3 21.1 20.8 20.6 20.4 20.3 20.2 20.1 30.4 41.1 67.0 82.3 56.6 57.3 80.1 68.6 47.2 33.0 27.3 25.4 24.4 23.7 23.1 22.7 22.2 21.9 21.6 21.2 21.0 20.7 20.5 20.4 20.2 20.1 39.6 70.4 132.0 180.4 140.3 146.3 200.8 162.0 87.4 42.0 30.0 26.6 25.4 24.4 23.7 23.1 22.5 22.1 21.7 21.3 21.0 20.8 20.6 20.4 20.2 20.1 42.5 84.2 160.7 240.9 223.7 270.5 368.9 318.6 180.7 66.3 34.5 28.2 26.4 25.2 24.1 23.3 22.6 22.1 21.7 21.4 21.1 20.8 20.5 20.4 20.2 20.1 37.3 63.9 128.6 214.3 211.4 281.3 396.2 353.7 224.6 94.6 40.4 28.6 26.7 25.3 24.2 23.3 22.7 22.1 21.7 21.4 21.1 20.8 20.6 20.4 20.2 20.1 32.3 41.6 77.4 126.4 137.2 182.1 235.6 200.7 135.9 74.6 36.4 27.2 25.9 24.8 23.9 23.1 22.6 22.1 21.7 21.3 21.0 20.7 20.5 20.4 20.2 20.1 28.8 30.7 37.8 49.1 73.3 86.6 79.1 63.3 46.3 35.9 27.5 25.6 24.8 24.1 23.4 22.8 22.4 22.0 21.5 21.2 20.9 20.7 20.5 20.3 20.1 20.1 24.6 26.3 27.5 31.6 40.3 40.1 33.5 31.3 28.7 26.9 25.5 24.7 24.0 23.4 22.9 22.5 22.1 21.7 21.4 21.1 20.9 20.6 20.4 20.2 20.1 20.1 20.0 20.1 20.1 20.1 20.1 20.1 20.1 20.1 20.1 20.1 20.1 20.0 20.0 20.0 20.0 20.0 20.0 20.0 20.0 20.0 20.0 20.0 20.0 20.0 20.0 20.0 20.1 20.1 20.1 20.1 20.1 20.1 20.1 20.1 20.1 20.1 20.1 20.1 20.1 20.1 20.1 20.1 20.1 20.1 20.1 20.1 20.1 20.1 20.0 20.0 20.0 20.0 20.2 20.2 20.2 20.3 20.3 20.2 20.2 20.2 20.2 20.2 20.2 20.2 20.2 20.2 20.2 20.1 20.1 20.1 20.1 20.1 20.1 20.1 20.1 20.1 20.0 20.0 20.3 20.3 20.4 20.4 20.4 20.4 20.4 20.4 20.4 20.3 20.3 20.3 20.3 20.3 20.2 20.2 20.2 20.2 20.2 20.2 20.2 20.1 20.1 20.1 20.0 20.0 20.4 20.5 20.6 20.6 20.5 20.5 20.6 20.5 20.5 20.5 20.4 20.4 20.4 20.4 20.3 20.3 20.3 20.3 20.3 20.3 20.2 20.2 20.1 20.1 20.1 20.0 20.5 20.6 20.7 20.7 20.7 20.7 20.7 20.7 20.7 20.6 20.6 20.5 20.5 20.5 20.4 20.4 20.4 20.4 20.4 20.3 20.3 20.2 20.2 20.1 20.1 20.0 20.7 20.7 20.9 20.9 20.9 20.9 20.9 21.0 20.9 20.8 20.7 20.6 20.6 20.6 20.6 20.6 20.5 20.5 20.4 20.4 20.3 20.2 20.2 20.1 20.1 20.0 20.8 20.9 21.0 21.1 21.1 21.0 21.1 21.2 21.1 21.0 20.9 20.8 20.8 20.7 20.7 20.7 20.6 20.6 20.5 20.4 20.3 20.3 20.2 20.1 20.1 20.0 20.9 21.1 21.2 21.4 21.3 21.3 21.3 21.4 21.4 21.2 21.1 21.0 20.9 20.9 20.9 20.8 20.7 20.7 20.6 20.5 20.4 20.3 20.2 20.1 20.1 20.0 21.0 21.2 21.4 21.6 21.6 21.5 21.6 21.7 21.6 21.4 21.3 21.2 21.1 21.1 21.0 21.0 20.9 20.8 20.7 20.5 20.4 20.3 20.2 20.2 20.1 20.0 21.2 21.4 21.6 21.8 21.9 21.8 21.9 22.0 21.9 21.7 21.5 21.4 21.3 21.3 21.2 21.1 21.0 20.8 20.7 20.6 20.5 20.4 20.3 20.2 20.1 20.0 21.3 21.5 21.8 22.1 22.2 22.2 22.3 22.4 22.2 22.0 21.8 21.6 21.6 21.5 21.3 21.2 21.1 20.9 20.8 20.6 20.5 20.4 20.3 20.2 20.1 20.0 21.6 21.7 22.0 22.3 22.5 22.6 22.8 22.8 22.6 22.3 22.1 22.0 21.8 21.7 21.5 21.3 21.2 21.0 20.8 20.7 20.5 20.4 20.3 20.2 20.1 20.0 21.9 22.0 22.3 22.6 22.8 23.1 23.3 23.4 23.0 22.7 22.5 22.3 22.1 21.9 21.7 21.5 21.3 21.1 20.9 20.8 20.6 20.4 20.3 20.2 20.1 20.0 22.2 22.5 22.8 23.1 23.3 23.6 24.0 24.0 23.6 23.2 23.0 22.7 22.4 22.1 21.9 21.6 21.4 21.2 21.0 20.8 20.6 20.5 20.3 20.2 20.1 20.1 22.7 23.5 24.2 24.1 24.0 24.3 24.8 24.9 24.4 23.9 23.5 23.1 22.7 22.4 22.1 21.8 21.6 21.3 21.1 20.9 20.7 20.5 20.4 20.2 20.1 20.1 24.1 25.4 26.6 26.4 25.7 26.0 26.6 26.2 25.3 24.6 24.1 23.6 23.0 22.7 22.3 22.0 21.7 21.4 21.2 20.9 20.7 20.5 20.4 20.2 20.1 20.1 26.4 27.9 29.5 28.3 26.2 27.9 29.6 28.7 27.1 25.7 24.9 24.1 23.5 23.0 22.6 22.2 21.9 21.5 21.3 21.0 20.8 20.6 20.4 20.3 20.1 20.1 28.7 33.0 36.4 33.1 28.9 34.7 40.5 41.4 37.0 29.6 26.1 24.8 24.0 23.4 22.9 22.5 22.1 21.7 21.4 21.2 20.9 20.7 20.5 20.3 20.2 20.1 45.8 66.0 79.0 67.4 43.1 50.1 65.1 66.7 55.2 36.8 28.0 25.6 24.6 23.9 23.3 22.9 22.4 22.1 21.7 21.3 21.0 20.8 20.6 20.4 20.2 20.1 76.6 135.0 182.5 152.4 86.6 103.8 138.1 120.0 77.9 43.4 30.6 26.7 25.4 24.5 23.8 23.2 22.7 22.2 21.8 21.4 21.1 20.9 20.6 20.4 20.2 20.1 82.8 159.8 235.5 204.2 137.7 202.0 276.0 247.7 153.1 63.0 34.4 28.2 26.4 25.1 24.2 23.4 22.7 22.1 21.8 21.4 21.1 20.9 20.6 20.4 20.2 20.1 62.5 112.8 181.5 174.8 127.5 202.0 293.2 292.3 219.0 101.3 39.8 28.6 26.7 25.4 24.2 23.4 22.7 22.1 21.7 21.4 21.1 20.9 20.6 20.4 20.2 20.1 48.0 59.9 90.0 95.9 86.7 124.8 161.6 164.0 144.6 83.5 35.8 27.4 26.1 25.0 24.0 23.1 22.6 22.1 21.7 21.4 21.1 20.8 20.6 20.4 20.2 20.1 41.1 36.2 34.6 38.5 59.7 72.8 64.9 57.3 48.6 36.3 27.5 25.9 25.0 24.3 23.5 22.8 22.3 22.0 21.6 21.3 21.0 20.7 20.5 20.3 20.2 20.1 30.0 29.5 28.1 30.9 37.6 37.3 33.0 31.6 29.0 27.0 25.8 25.0 24.2 23.5 23.0 22.5 22.0 21.7 21.4 21.2 20.9 20.7 20.5 20.3 20.1 20.1 20.0 20.1 20.1 20.1 20.1 20.1 20.1 20.1 20.1 20.1 20.1 20.0 20.0 20.1 20.1 20.1 20.1 20.0 20.0 20.0 20.1 20.1 20.1 20.0 20.0 20.0 20.1 20.1 20.1 20.1 20.1 20.1 20.1 20.1 20.1 20.1 20.1 20.1 20.1 20.1 20.1 20.1 20.1 20.1 20.1 20.1 20.1 20.1 20.1 20.1 20.0 20.0 20.2 20.2 20.3 20.3 20.3 20.2 20.2 20.2 20.3 20.2 20.2 20.2 20.2 20.2 20.2 20.2 20.2 20.2 20.2 20.2 20.2 20.2 20.1 20.1 20.0 20.0 20.3 20.4 20.4 20.5 20.4 20.4 20.4 20.4 20.4 20.4 20.3 20.3 20.3 20.3 20.3 20.3 20.3 20.3 20.3 20.3 20.2 20.2 20.1 20.1 20.1 20.0 20.4 20.5 20.6 20.6 20.6 20.5 20.6 20.5 20.5 20.5 20.5 20.4 20.4 20.4 20.4 20.4 20.4 20.4 20.4 20.4 20.3 20.2 20.2 20.1 20.1 20.0 20.5 20.6 20.8 20.8 20.7 20.7 20.8 20.7 20.7 20.7 20.6 20.6 20.5 20.5 20.5 20.5 20.5 20.5 20.5 20.4 20.3 20.3 20.2 20.1 20.1 20.0 20.6 20.8 20.9 21.0 20.9 20.9 21.0 21.0 20.9 20.8 20.7 20.7 20.7 20.6 20.6 20.7 20.6 20.6 20.5 20.4 20.4 20.3 20.2 20.1 20.1 20.0 20.8 20.9 21.1 21.1 21.1 21.1 21.2 21.2 21.2 21.0 20.9 20.9 20.8 20.8 20.8 20.8 20.8 20.7 20.6 20.5 20.4 20.3 20.2 20.2 20.1 20.0 20.9 21.0 21.2 21.3 21.3 21.3 21.4 21.5 21.4 21.3 21.1 21.1 21.0 21.0 21.0 21.0 20.9 20.8 20.7 20.6 20.4 20.3 20.3 20.2 20.1 20.0 21.0 21.1 21.4 21.5 21.5 21.5 21.6 21.8 21.7 21.5 21.4 21.3 21.2 21.2 21.2 21.1 21.0 20.9 20.7 20.6 20.5 20.4 20.3 20.2 20.1 20.0 21.2 21.3 21.5 21.8 21.8 21.8 21.9 22.1 22.0 21.8 21.6 21.5 21.4 21.4 21.3 21.2 21.1 20.9 20.8 20.6 20.5 20.4 20.3 20.2 20.1 20.0 21.4 21.6 21.8 22.0 22.2 22.2 22.3 22.4 22.3 22.0 21.9 21.8 21.7 21.6 21.4 21.3 21.2 21.0 20.8 20.7 20.5 20.4 20.3 20.2 20.1 20.0 21.7 21.8 22.1 22.3 22.5 22.6 22.8 22.8 22.6 22.4 22.2 22.1 21.9 21.7 21.6 21.5 21.3 21.1 20.9 20.7 20.6 20.5 20.3 20.2 20.1 20.0 21.9 22.2 22.5 22.6 22.8 23.1 23.3 23.3 23.1 22.8 22.6 22.4 22.2 22.0 21.8 21.6 21.4 21.2 21.0 20.8 20.6 20.5 20.4 20.2 20.1 20.1 22.3 22.7 23.1 23.2 23.3 23.6 23.9 23.9 23.6 23.3 23.0 22.8 22.5 22.2 22.0 21.8 21.5 21.3 21.1 20.9 20.7 20.5 20.4 20.2 20.1 20.1 23.0 23.5 24.0 24.1 24.0 24.1 24.5 24.7 24.3 23.8 23.5 23.1 22.8 22.5 22.2 22.0 21.7 21.4 21.1 20.9 20.7 20.5 20.4 20.2 20.1 20.1 27.2 26.3 26.1 26.1 25.7 25.5 25.7 25.6 25.1 24.5 24.0 23.5 23.1 22.8 22.5 22.1 21.8 21.5 21.2 21.0 20.8 20.6 20.4 20.3 20.1 20.1 33.1 30.7 27.9 26.6 27.5 28.3 27.8 27.4 26.7 25.6 24.8 24.1 23.5 23.1 22.7 22.3 21.9 21.6 21.3 21.1 20.8 20.6 20.5 20.3 20.2 20.1 35.8 37.0 32.3 28.2 32.2 36.4 36.1 37.7 34.8 28.7 26.0 24.8 24.1 23.5 23.0 22.5 22.1 21.8 21.5 21.2 21.0 20.7 20.5 20.3 20.2 20.1 57.9 82.0 70.3 43.8 43.3 50.3 51.6 61.5 55.3 35.7 27.9 25.7 24.6 24.0 23.4 22.9 22.5 22.1 21.7 21.3 21.1 20.8 20.6 20.4 20.2 20.1 115.5 178.8 155.6 87.9 89.9 110.3 104.6 106.1 79.2 41.4 30.7 26.9 25.3 24.5 23.9 23.3 22.8 22.2 21.8 21.4 21.1 20.9 20.6 20.4 20.2 20.1 143.2 216.3 194.0 116.4 146.3 198.8 202.9 201.3 129.3 50.8 33.4 28.1 26.1 25.0 24.2 23.4 22.8 22.2 21.8 21.5 21.1 20.8 20.6 20.4 20.2 20.1 116.9 157.5 146.9 90.9 114.6 165.0 186.9 227.1 175.3 71.6 34.6 28.3 26.4 25.2 24.1 23.3 22.8 22.2 21.8 21.4 21.1 20.8 20.6 20.4 20.2 20.1 86.7 90.1 79.1 53.1 58.0 79.0 91.4 131.8 126.5 63.2 31.3 27.0 25.8 24.8 23.9 23.1 22.6 22.2 21.8 21.4 21.1 20.8 20.6 20.4 20.2 20.1 60.2 52.6 39.3 34.9 42.3 49.1 49.7 54.7 50.8 35.0 27.1 25.7 24.9 24.1 23.4 22.7 22.3 22.0 21.7 21.4 21.1 20.8 20.5 20.3 20.2 20.1 34.5 34.1 29.8 29.7 32.2 32.4 31.8 31.0 28.9 27.1 25.9 25.1 24.2 23.5 23.0 22.4 22.0 21.7 21.5 21.2 21.0 20.8 20.5 20.3 20.2 20.1 20.0 20.1 20.1 20.1 20.1 20.0 20.0 20.1 20.1 20.1 20.1 20.1 20.1 20.1 20.1 20.1 20.1 20.0 20.0 20.1 20.1 20.1 20.1 20.1 20.0 20.0 20.1 20.1 20.1 20.1 20.1 20.1 20.1 20.1 20.1 20.1 20.1 20.1 20.1 20.1 20.1 20.1 20.1 20.1 20.1 20.1 20.1 20.1 20.1 20.1 20.1 20.0 20.2 20.2 20.3 20.3 20.3 20.2 20.2 20.2 20.2 20.3 20.2 20.2 20.2 20.2 20.2 20.2 20.2 20.2 20.2 20.2 20.2 20.2 20.2 20.1 20.1 20.0 20.3 20.3 20.4 20.5 20.5 20.4 20.4 20.4 20.4 20.4 20.4 20.3 20.3 20.3 20.3 20.3 20.3 20.3 20.3 20.3 20.3 20.3 20.2 20.1 20.1 20.0 20.4 20.5 20.6 20.6 20.6 20.6 20.5 20.5 20.6 20.6 20.5 20.5 20.4 20.4 20.4 20.5 20.4 20.4 20.4 20.4 20.4 20.3 20.2 20.1 20.1 20.0 20.5 20.6 20.7 20.8 20.8 20.7 20.7 20.7 20.8 20.7 20.6 20.6 20.6 20.5 20.5 20.6 20.6 20.5 20.5 20.5 20.4 20.3 20.2 20.1 20.1 20.0 20.6 20.7 20.9 21.0 20.9 20.9 20.9 21.0 21.0 20.9 20.8 20.7 20.7 20.7 20.7 20.7 20.7 20.6 20.6 20.5 20.4 20.3 20.2 20.1 20.1 20.0 20.7 20.9 21.1 21.2 21.1 21.1 21.1 21.2 21.2 21.0 20.9 20.9 20.9 20.9 20.8 20.9 20.8 20.7 20.6 20.6 20.5 20.4 20.3 20.2 20.1 20.0 20.9 21.0 21.2 21.4 21.4 21.3 21.4 21.5 21.4 21.3 21.2 21.2 21.1 21.1 21.1 21.0 20.9 20.8 20.7 20.6 20.5 20.4 20.3 20.2 20.1 20.0 21.0 21.1 21.4 21.6 21.6 21.6 21.7 21.8 21.7 21.5 21.4 21.4 21.3 21.3 21.2 21.2 21.0 20.9 20.8 20.7 20.5 20.4 20.3 20.2 20.1 20.1 21.3 21.4 21.6 21.8 21.9 21.9 21.9 22.1 22.0 21.8 21.7 21.6 21.5 21.5 21.4 21.3 21.1 21.0 20.8 20.7 20.6 20.4 20.3 20.2 20.1 20.1 21.5 21.7 21.8 22.0 22.2 22.2 22.3 22.4 22.3 22.1 22.0 21.9 21.8 21.7 21.5 21.4 21.2 21.0 20.9 20.7 20.6 20.5 20.3 20.2 20.1 20.1 21.8 21.9 22.1 22.3 22.4 22.6 22.7 22.8 22.7 22.5 22.3 22.2 22.0 21.9 21.7 21.6 21.4 21.1 21.0 20.8 20.6 20.5 20.4 20.2 20.1 20.1 22.1 22.4 22.6 22.7 22.8 23.0 23.3 23.3 23.1 22.8 22.7 22.5 22.3 22.1 21.9 21.7 21.5 21.3 21.1 20.8 20.7 20.5 20.4 20.2 20.1 20.1 22.5 22.9 23.2 23.3 23.3 23.5 23.8 23.9 23.6 23.3 23.0 22.8 22.5 22.3 22.1 21.8 21.6 21.3 21.1 20.9 20.7 20.5 20.4 20.2 20.1 20.1 23.5 23.8 23.8 23.8 23.8 24.0 24.3 24.5 24.2 23.8 23.5 23.2 22.9 22.6 22.3 22.0 21.7 21.4 21.2 20.9 20.7 20.6 20.4 20.3 20.1 20.1 30.6 27.3 25.4 25.1 25.1 25.1 25.2 25.1 24.9 24.5 24.0 23.6 23.3 23.0 22.6 22.2 21.8 21.5 21.2 21.0 20.8 20.6 20.4 20.3 20.1 20.1 45.2 36.7 27.4 26.3 27.5 27.1 26.6 26.5 26.1 25.3 24.7 24.1 23.7 23.3 22.8 22.3 21.9 21.6 21.3 21.0 20.8 20.7 20.5 20.3 20.2 20.1 53.1 48.8 33.6 29.5 33.0 32.2 31.5 31.7 30.0 27.0 25.6 24.7 24.2 23.6 23.0 22.5 22.0 21.7 21.4 21.2 20.9 20.7 20.6 20.4 20.2 20.1 65.3 86.2 68.2 49.9 51.8 43.6 43.3 52.2 46.3 31.0 27.1 25.6 24.7 24.1 23.5 22.8 22.3 21.9 21.6 21.3 21.0 20.8 20.6 20.4 20.2 20.1 124.8 168.0 127.2 99.5 112.2 92.5 84.7 94.3 71.3 35.9 29.7 26.9 25.4 24.6 23.9 23.2 22.7 22.1 21.7 21.4 21.1 20.8 20.6 20.4 20.2 20.1 162.2 202.4 143.6 126.1 156.1 149.7 158.6 163.9 103.8 40.8 31.7 27.9 26.1 25.1 24.1 23.4 22.8 22.3 21.8 21.4 21.1 20.8 20.5 20.3 20.2 20.1 136.0 153.3 103.1 89.1 108.3 116.0 149.5 182.9 125.4 44.7 30.9 27.8 26.2 25.1 24.1 23.3 22.8 22.3 21.9 21.5 21.1 20.8 20.6 20.4 20.2 20.1 99.0 96.5 62.7 48.6 50.7 54.4 75.1 112.6 92.2 39.3 28.4 26.6 25.6 24.7 24.0 23.2 22.7 22.3 21.9 21.5 21.1 20.8 20.6 20.4 20.2 20.1 58.9 57.0 41.8 36.2 36.6 37.5 41.4 49.4 44.0 30.3 26.8 25.6 24.8 24.1 23.4 22.8 22.3 22.0 21.7 21.4 21.1 20.8 20.6 20.4 20.2 20.1 31.5 34.1 31.2 30.9 31.5 31.0 30.9 30.0 28.5 27.1 26.0 25.1 24.3 23.6 23.0 22.4 22.0 21.8 21.5 21.3 21.1 20.8 20.6 20.3 20.2 20.1 20.1 20.1 20.1 20.1 20.1 20.1 20.0 20.0 20.1 20.1 20.1 20.1 20.1 20.1 20.1 20.1 20.1 20.1 20.1 20.1 20.1 20.1 20.1 20.1 20.1 20.1 20.1 20.1 20.1 20.1 20.1 20.1 20.1 20.1 20.1 20.1 20.1 20.1 20.1 20.1 20.1 20.1 20.1 20.1 20.1 20.1 20.1 20.1 20.1 20.1 20.1 20.0 20.2 20.3 20.3 20.3 20.3 20.2 20.2 20.2 20.2 20.3 20.3 20.3 20.3 20.2 20.2 20.2 20.2 20.2 20.2 20.2 20.2 20.2 20.2 20.1 20.1 20.0 20.3 20.4 20.4 20.4 20.4 20.4 20.3 20.3 20.4 20.4 20.4 20.4 20.4 20.4 20.4 20.4 20.3 20.3 20.3 20.3 20.3 20.3 20.2 20.1 20.1 20.0 20.5 20.5 20.5 20.6 20.6 20.5 20.5 20.5 20.6 20.6 20.6 20.5 20.5 20.5 20.5 20.5 20.5 20.4 20.4 20.4 20.4 20.3 20.2 20.1 20.1 20.0 20.6 20.6 20.7 20.8 20.8 20.7 20.7 20.7 20.8 20.8 20.7 20.6 20.6 20.6 20.6 20.6 20.6 20.5 20.5 20.5 20.4 20.3 20.2 20.1 20.1 20.0 20.7 20.8 20.9 21.0 21.0 20.9 20.9 21.0 21.0 20.9 20.8 20.8 20.8 20.8 20.8 20.8 20.7 20.6 20.6 20.6 20.5 20.4 20.3 20.2 20.1 20.0 20.8 20.9 21.1 21.2 21.2 21.1 21.1 21.2 21.2 21.1 21.0 21.0 21.0 21.0 21.0 20.9 20.8 20.8 20.7 20.6 20.5 20.4 20.3 20.2 20.1 20.0 20.9 21.0 21.2 21.4 21.5 21.4 21.4 21.4 21.4 21.3 21.3 21.2 21.2 21.2 21.1 21.1 21.0 20.9 20.8 20.7 20.6 20.4 20.3 20.2 20.1 20.1 21.1 21.2 21.4 21.7 21.7 21.6 21.6 21.7 21.7 21.6 21.6 21.5 21.4 21.4 21.3 21.2 21.1 21.0 20.9 20.7 20.6 20.5 20.3 20.2 20.1 20.1 21.4 21.5 21.7 21.9 22.0 21.9 22.0 22.1 22.0 21.9 21.8 21.7 21.6 21.5 21.4 21.3 21.2 21.1 20.9 20.8 20.6 20.5 20.4 20.2 20.1 20.1 21.6 21.8 21.9 22.1 22.2 22.3 22.3 22.4 22.4 22.2 22.1 22.0 21.9 21.7 21.6 21.4 21.3 21.1 21.0 20.8 20.7 20.5 20.4 20.3 20.1 20.1 21.9 22.1 22.2 22.4 22.5 22.6 22.7 22.9 22.8 22.6 22.5 22.3 22.1 21.9 21.8 21.6 21.4 21.2 21.1 20.9 20.7 20.5 20.4 20.3 20.1 20.1 22.2 22.5 22.7 22.8 22.9 23.0 23.2 23.3 23.2 23.0 22.8 22.6 22.3 22.1 22.0 21.8 21.6 21.4 21.2 20.9 20.7 20.5 20.4 20.3 20.1 20.1 22.6 23.0 23.2 23.2 23.3 23.5 23.7 23.9 23.7 23.3 23.1 22.8 22.6 22.4 22.2 21.9 21.7 21.5 21.2 21.0 20.7 20.6 20.4 20.2 20.1 20.1 23.5 23.7 23.6 23.6 23.8 24.0 24.3 24.5 24.2 23.8 23.5 23.2 23.0 22.7 22.4 22.0 21.7 21.5 21.2 21.0 20.7 20.5 20.4 20.2 20.1 20.1 30.0 26.7 25.0 24.7 24.7 24.9 25.0 25.0 24.8 24.4 23.9 23.6 23.4 23.1 22.6 22.2 21.8 21.5 21.2 21.0 20.7 20.6 20.4 20.3 20.1 20.1 49.0 37.3 29.2 27.2 26.1 25.9 26.0 26.1 25.8 25.1 24.5 24.1 23.8 23.4 22.8 22.3 21.9 21.6 21.3 21.0 20.8 20.6 20.5 20.3 20.2 20.1 71.9 59.5 40.3 31.9 29.5 28.5 28.8 29.3 28.0 26.0 25.2 24.7 24.2 23.7 23.0 22.4 22.0 21.7 21.4 21.1 20.9 20.7 20.5 20.