<?xml version="1.0"?>
<VTKFile type="ImageData" version="1.0" byte_order="LittleEndian" header_type="UInt64">
<ImageData WholeExtent="0 25 0 25 0 15"
 Origin="0.0000 0.0000 0.0000" Spacing="0.6000 0.6000 0.6000">
<Piece Extent="0 25 0 25 0 15">
<PointData>
<DataArray Name="TEMPERATURE" NumberOfComponents="1" type="Float32" format="ascii">
20.0 20.0 20.0 20.0 20.0 20.0 20.0 20.0 20.0 20.0 20.0 20.0 20.0 20.0 20.0 20.0 20.0 20.0 20.0 20.0 20.0 20.0 20.0 20.0 20.0 20.0 20.0 20.0 20.0 20.0 20.0 20.0 20.0 20.0 20.0 20.0 20.0 20.0 20.0 20.0 20.0 20.0 20.0 20.0 20.0 20.0 20.0 20.0 20.1 20.1 20.1 20.1 20.0 20.0 20.1 20.1 20.1 20.1 20.1 20.1 20.1 20.1 20.1 20.1 20.1 20.1 20.1 20.1 20.1 20.1 20.1 20.1 20.1 20.1 20.1 20.1 20.1 20.1 20.0 20.0 20.1 20.1 20.1 20.1 20.1 20.1 20.1 20.1 20.1 20.1 20.1 20.1 20.1 20.1 20.1 20.1 20.1 20.1 20.2 20.2 20.2 20.2 20.2 20.2 20.0 20.0 20.1 20.1 20.1 20.1 20.1 20.1 20.1 20.2 20.2 20.2 20.2 20.2 20.2 20.2 20.2 20.2 20.2 20.2 20.2 20.2 20.2 20.3 20.3 20.3 20.0 20.0 20.1 20.1 20.1 20.1 20.1 20.2 20.2 20.2 20.2 20.2 20.2 20.2 20.2 20.2 20.2 20.2 20.3 20.3 20.3 20.3 20.3 20.3 20.3 20.4 20.0 20.0 20.1 20.1 20.1 20.1 20.2 20.2 20.2 20.2 20.2 20.3 20.3 20.3 20.3 20.3 20.3 20.3 20.3 20.3 20.4 20.4 20.4 20.4 20.4 20.5 20.0 20.0 20.1 20.1 20.1 20.2 20.2 20.2 20.2 20.2 20.3 20.3 20.3 20.3 20.4 20.4 20.4 20.4 20.4 20.4 20.5 20.5 20.5 20.5 20.5 20.5 20.0 20.0 20.1 20.1 20.1 20.2 20.2 20.2 20.2 20.3 20.3 20.3 20.3 20.4 20.4 20.4 20.5 20.5 20.5 20.6 20.6 20.6 20.6 20.6 20.6 20.7 20.0 20.0 20.1 20.1 20.1 20.2 20.2 20.2 20.2 20.3 20.3 20.3 20.4 20.4 20.5 20.5 20.5 20.6 20.6 20.7 20.7 20.7 20.7 20.8 20.8 20.8 20.0 20.0 20.1 20.1 20.1 20.2 20.2 20.2 20.3 20.3 20.3 20.4 20.4 20.4 20.5 20.5 20.6 20.7 20.7 20.8 20.8 20.9 20.9 20.9 21.0 21.0 20.0 20.0 20.0 20.1 20.1 20.2 20.2 20.2 20.3 20.3 20.3 20.4 20.4 20.5 20.5 20.6 20.6 20.7 20.8 20.9 20.9 21.0 21.1 21.1 21.2 21.2 20.0 20.0 20.0 20.1 20.1 20.2 20.2 20.2 20.3 20.3 20.4 20.4 20.5 20.5 20.6 20.6 20.7 20.8 20.9 20.9 21.0 21.1 21.2 21.3 21.4 21.4 20.0 20.0 20.0 20.1 20.1 20.1 20.2 20.2 20.3 20.3 20.4 20.4 20.5 20.5 20.6 20.7 20.8 20.8 20.9 21.0 21.1 21.2 21.4 21.5 21.6 21.7 20.0 20.0 20.0 20.1 20.1 20.1 20.2 20.2 20.3 20.3 20.4 20.4 20.5 20.6 20.6 20.7 20.8 20.9 21.0 21.1 21.2 21.4 21.5 21.7 21.8 22.0 20.0 20.0 20.0 20.1 20.1 20.2 20.2 20.2 20.3 20.3 20.4 20.4 20.5 20.6 20.6 20.7 20.9 21.0 21.1 21.2 21.3 21.5 21.7 21.9 22.0 22.2 20.0 20.0 20.1 20.1 20.1 20.2 20.2 20.3 20.3 20.4 20.4 20.5 20.5 20.6 20.7 20.8 20.9 21.0 21.2 21.3 21.5 21.6 21.8 22.1 22.3 22.6 20.0 20.0 20.1 20.1 20.1 20.2 20.2 20.3 20.4 20.4 20.5 20.5 20.6 20.6 20.7 20.8 20.9 21.1 21.2 21.4 21.6 21.8 22.0 22.3 22.6 22.9 20.0 20.0 20.1 20.1 20.1 20.2 20.3 20.3 20.4 20.4 20.5 20.6 20.6 20.7 20.8 20.9 21.0 21.1 21.3 21.5 21.7 22.0 22.2 22.5 22.9 23.3 20.0 20.0 20.1 20.1 20.1 20.2 20.2 20.3 20.4 20.4 20.5 20.6 20.7 20.8 20.9 21.0 21.1 21.3 21.5 21.7 21.9 22.3 22.6 22.9 23.3 23.9 20.0 20.0 20.0 20.1 20.1 20.2 20.2 20.3 20.3 20.4 20.5 20.5 20.6 20.7 20.8 21.0 21.2 21.4 21.6 21.8 22.2 22.6 22.9 23.3 24.0 24.8 20.0 20.0 20.0 20.1 20.1 20.1 20.2 20.2 20.3 20.3 20.4 20.5 20.5 20.6 20.7 20.9 21.1 21.3 21.6 21.9 22.3 22.7 23.1 23.7 24.6 25.7 20.0 20.0 20.0 20.1 20.1 20.1 20.2 20.2 20.3 20.3 20.4 20.4 20.5 20.6 20.7 20.9 21.1 21.3 21.6 21.9 22.2 22.6 23.1 23.8 24.6 25.6 20.0 20.0 20.0 20.1 20.1 20.1 20.2 20.3 20.3 20.4 20.4 20.5 20.6 20.7 20.8 20.9 21.1 21.3 21.6 21.9 22.1 22.4 22.9 23.7 24.2 24.9 20.0 20.0 20.1 20.1 20.1 20.2 20.2 20.3 20.4 20.5 20.5 20.6 20.7 20.8 20.9 21.0 21.2 21.3 21.5 21.8 22.0 22.3 22.7 23.1 23.5 24.1 20.0 20.0 20.1 20.1 20.2 20.2 20.3 20.3 20.4 20.5 20.6 20.6 20.7 20.8 20.9 21.0 21.1 21.2 21.4 21.6 21.8 22.0 22.3 22.6 23.0 22.6 20.0 20.0 20.0 20.0 20.0 20.0 20.0 20.0 20.0 20.0 20.0 20.0 20.0 20.0 20.0 20.0 20.0 20.0 20.0 20.0 20.0 20.0 20.0 20.0 20.0 20.0 20.0 20.0 20.0 20.0 20.0 20.0 20.0 20.0 20.0 20.0 20.0 20.0 20.0 20.0 20.0 20.0 20.0 20.0 20.0 20.0 20.0 20.0 20.0 20.1 20.1 20.1 20.0 20.0 20.1 20.1 20.1 20.1 20.1 20.1 20.1 20.1 20.1 20.1 20.1 20.1 20.1 20.1 20.1 20.1 20.1 20.1 20.1 20.1 20.1 20.1 20.1 20.1 20.0 20.0 20.1 20.1 20.1 20.1 20.1 20.1 20.1 20.1 20.1 20.1 20.1 20.1 20.1 20.1 20.1 20.1 20.1 20.1 20.1 20.1 20.2 20.2 20.2 20.2 20.0 20.0 20.1 20.1 20.1 20.1 20.1 20.1 20.1 20.1 20.1 20.1 20.1 20.2 20.2 20.2 20.2 20.2 20.2 20.2 20.2 20.2 20.2 20.2 20.2 20.3 20.0 20.0 20.1 20.1 20.1 20.1 20.1 20.1 20.2 20.2 20.2 20.2 20.2 20.2 20.2 20.2 20.2 20.2 20.2 20.2 20.2 20.3 20.3 20.3 20.3 20.3 20.0 20.0 20.1 20.1 20.1 20.1 20.1 20.2 20.2 20.2 20.2 20.2 20.2 20.3 20.3 20.3 20.3 20.3 20.3 20.3 20.3 20.3 20.4 20.4 20.4 20.4 20.0 20.0 20.1 20.1 20.1 20.1 20.2 20.2 20.2 20.2 20.2 20.3 20.3 20.3 20.3 20.4 20.4 20.4 20.4 20.4 20.4 20.4 20.5 20.5 20.5 20.5 20.0 20.0 20.1 20.1 20.1 20.1 20.2 20.2 20.2 20.2 20.3 20.3 20.3 20.3 20.4 20.4 20.4 20.5 20.5 20.5 20.5 20.6 20.6 20.6 20.6 20.6 20.0 20.0 20.1 20.1 20.1 20.1 20.2 20.2 20.2 20.2 20.3 20.3 20.3 20.4 20.4 20.5 20.5 20.5 20.6 20.6 20.7 20.7 20.7 20.7 20.8 20.8 20.0 20.0 20.0 20.1 20.1 20.1 20.2 20.2 20.2 20.3 20.3 20.3 20.4 20.4 20.5 20.5 20.6 20.6 20.7 20.7 20.8 20.8 20.9 20.9 20.9 21.0 20.0 20.0 20.0 20.1 20.1 20.1 20.2 20.2 20.2 20.3 20.3 20.4 20.4 20.4 20.5 20.5 20.6 20.7 20.7 20.8 20.9 21.0 21.0 21.1 21.2 21.2 20.0 20.0 20.0 20.1 20.1 20.1 20.2 20.2 20.2 20.3 20.3 20.4 20.4 20.5 20.5 20.6 20.7 20.7 20.8 20.9 21.0 21.1 21.2 21.3 21.4 21.5 20.0 20.0 20.0 20.1 20.1 20.1 20.2 20.2 20.2 20.3 20.3 20.4 20.4 20.5 20.6 20.6 20.7 20.8 20.9 21.0 21.1 21.2 21.3 21.5 21.6 21.7 20.0 20.0 20.0 20.1 20.1 20.1 20.2 20.2 20.2 20.3 20.3 20.4 20.4 20.5 20.6 20.7 20.8 20.9 21.0 21.1 21.2 21.3 21.5 21.6 21.8 22.0 20.0 20.0 20.0 20.1 20.1 20.1 20.2 20.2 20.2 20.3 20.3 20.4 20.4 20.5 20.6 20.7 20.8 20.9 21.0 21.2 21.3 21.5 21.7 21.9 22.1 22.3 20.0 20.0 20.0 20.1 20.1 20.1 20.2 20.2 20.3 20.3 20.3 20.4 20.5 20.5 20.6 20.7 20.8 21.0 21.1 21.3 21.4 21.6 21.9 22.1 22.3 22.6 20.0 20.0 20.0 20.1 20.1 20.2 20.2 20.2 20.3 20.3 20.4 20.4 20.5 20.5 20.6 20.8 20.9 21.0 21.2 21.4 21.6 21.8 22.1 22.3 22.6 23.0 20.0 20.0 20.0 20.1 20.1 20.2 20.2 20.3 20.3 20.4 20.4 20.5 20.5 20.6 20.7 20.8 21.0 21.1 21.3 21.5 21.7 22.0 22.3 22.6 23.0 23.5 20.0 20.0 20.0 20.1 20.1 20.2 20.2 20.3 20.3 20.4 20.4 20.5 20.5 20.6 20.8 20.9 21.1 21.3 21.5 21.7 21.9 22.3 22.6 23.0 23.5 24.1 20.0 20.0 20.0 20.1 20.1 20.1 20.2 20.2 20.3 20.3 20.4 20.4 20.5 20.6 20.7 20.9 21.1 21.3 21.6 21.9 22.2 22.6 23.0 23.5 24.2 25.0 20.0 20.0 20.0 20.0 20.1 20.1 20.1 20.2 20.2 20.3 20.3 20.4 20.4 20.5 20.7 20.8 21.1 21.3 21.6 21.9 22.4 22.8 23.2 24.0 25.3 26.5 20.0 20.0 20.0 20.0 20.1 20.1 20.1 20.2 20.2 20.3 20.3 20.4 20.4 20.5 20.7 20.8 21.0 21.3 21.6 21.9 22.3 22.7 23.2 24.1 25.4 26.6 20.0 20.0 20.0 20.1 20.1 20.1 20.2 20.2 20.3 20.3 20.4 20.4 20.5 20.6 20.7 20.9 21.1 21.3 21.6 21.9 22.2 22.5 23.0 23.8 24.4 25.2 20.0 20.0 20.1 20.1 20.1 20.2 20.2 20.3 20.3 20.4 20.5 20.5 20.6 20.7 20.8 21.0 21.1 21.3 21.5 21.8 22.0 22.3 22.7 23.2 23.6 24.2 20.0 20.0 20.1 20.1 20.1 20.2 20.2 20.3 20.4 20.4 20.5 20.6 20.7 20.7 20.8 20.9 21.1 21.2 21.4 21.6 21.8 22.0 22.3 22.7 23.1 22.7 20.0 20.0 20.0 20.0 20.0 20.0 20.0 20.0 20.0 20.0 20.0 20.0 20.0 20.0 20.0 20.0 20.0 20.0 20.0 20.0 20.0 20.0 20.0 20.0 20.0 20.0 20.0 20.0 20.0 20.0 20.0 20.0 20.0 20.0 20.0 20.0 20.0 20.0 20.0 20.0 20.0 20.0 20.0 20.0 20.0 20.0 20.0 20.0 20.0 20.0 20.0 20.0 20.0 20.0 20.0 20.1 20.1 20.1 20.1 20.1 20.0 20.0 20.1 20.0 20.1 20.1 20.1 20.1 20.1 20.1 20.1 20.1 20.1 20.1 20.1 20.1 20.1 20.1 20.0 20.0 20.1 20.1 20.1 20.1 20.1 20.1 20.1 20.1 20.1 20.1 20.1 20.1 20.1 20.1 20.1 20.1 20.1 20.1 20.1 20.1 20.1 20.1 20.2 20.2 20.0 20.0 20.1 20.1 20.1 20.1 20.1 20.1 20.1 20.1 20.1 20.1 20.1 20.1 20.1 20.1 20.1 20.1 20.1 20.2 20.2 20.2 20.2 20.2 20.2 20.2 20.0 20.0 20.1 20.1 20.1 20.1 20.1 20.1 20.1 20.1 20.2 20.2 20.2 20.2 20.2 20.2 20.2 20.2 20.2 20.2 20.2 20.2 20.2 20.3 20.3 20.3 20.0 20.0 20.0 20.1 20.1 20.1 20.1 20.1 20.1 20.2 20.2 20.2 20.2 20.2 20.2 20.2 20.3 20.3 20.3 20.3 20.3 20.3 20.3 20.3 20.4 20.4 20.0 20.0 20.0 20.1 20.1 20.1 20.1 20.1 20.2 20.2 20.2 20.2 20.2 20.3 20.3 20.3 20.3 20.3 20.4 20.4 20.4 20.4 20.4 20.4 20.5 20.5 20.0 20.0 20.0 20.1 20.1 20.1 20.1 20.2 20.2 20.2 20.2 20.2 20.3 20.3 20.3 20.4 20.4 20.4 20.4 20.5 20.5 20.5 20.5 20.6 20.6 20.6 20.0 20.0 20.0 20.1 20.1 20.1 20.1 20.2 20.2 20.2 20.2 20.3 20.3 20.3 20.4 20.4 20.4 20.5 20.5 20.6 20.6 20.6 20.7 20.7 20.7 20.8 20.0 20.0 20.0 20.1 20.1 20.1 20.1 20.2 20.2 20.2 20.2 20.3 20.3 20.3 20.4 20.4 20.5 20.5 20.6 20.7 20.7 20.8 20.8 20.9 20.9 21.0 20.0 20.0 20.0 20.1 20.1 20.1 20.1 20.2 20.2 20.2 20.3 20.3 20.3 20.4 20.4 20.5 20.5 20.6 20.7 20.7 20.8 20.9 21.0 21.0 21.1 21.2 20.0 20.0 20.0 20.1 20.1 20.1 20.1 20.2 20.2 20.2 20.3 20.3 20.4 20.4 20.5 20.5 20.6 20.7 20.7 20.8 20.9 21.0 21.1 21.2 21.3 21.5 20.0 20.0 20.0 20.1 20.1 20.1 20.1 20.2 20.2 20.2 20.3 20.3 20.4 20.4 20.5 20.6 20.6 20.7 20.8 20.9 21.0 21.1 21.3 21.4 21.6 21.7 20.0 20.0 20.0 20.1 20.1 20.1 20.1 20.2 20.2 20.2 20.3 20.3 20.4 20.4 20.5 20.6 20.7 20.8 20.9 21.0 21.2 21.3 21.5 21.6 21.8 22.0 20.0 20.0 20.0 20.1 20.1 20.1 20.1 20.2 20.2 20.2 20.3 20.3 20.4 20.4 20.5 20.6 20.7 20.9 21.0 21.1 21.3 21.5 21.7 21.9 22.1 22.4 20.0 20.0 20.0 20.1 20.1 20.1 20.1 20.2 20.2 20.2 20.3 20.3 20.4 20.5 20.6 20.7 20.8 20.9 21.1 21.2 21.4 21.6 21.9 22.1 22.4 22.8 20.0 20.0 20.0 20.1 20.1 20.1 20.1 20.2 20.2 20.2 20.2 20.3 20.4 20.5 20.7 20.8 20.9 21.0 21.2 21.3 21.6 21.8 22.1 22.4 22.8 23.2 20.0 20.0 20.0 20.0 20.1 20.1 20.1 20.2 20.2 20.2 20.2 20.3 20.4 20.5 20.7 20.9 21.0 21.1 21.3 21.5 21.8 22.0 22.4 22.8 23.3 23.9 20.0 20.0 20.0 20.0 20.1 20.1 20.1 20.2 20.2 20.2 20.2 20.3 20.4 20.5 20.8 21.0 21.1 21.3 21.5 21.7 22.0 22.3 22.7 23.2 23.9 24.7 20.0 20.0 20.0 20.0 20.1 20.1 20.1 20.1 20.2 20.2 20.2 20.3 20.4 20.5 20.8 21.1 21.2 21.4 21.6 21.9 22.3 22.7 23.2 23.8 24.7 26.0 20.0 20.0 20.0 20.0 20.1 20.1 20.1 20.1 20.1 20.2 20.2 20.3 20.3 20.5 20.9 21.2 21.3 21.4 21.6 22.0 22.4 22.9 23.5 24.4 26.0 27.9 20.0 20.0 20.0 20.0 20.1 20.1 20.1 20.1 20.1 20.2 20.2 20.3 20.3 20.5 20.8 21.1 21.2 21.4 21.7 22.0 22.4 22.8 23.5 24.5 26.1 27.8 20.0 20.0 20.0 20.0 20.1 20.1 20.1 20.1 20.2 20.2 20.3 20.3 20.4 20.6 20.8 21.0 21.2 21.3 21.6 21.9 22.2 22.6 23.3 24.1 24.9 25.9 20.0 20.0 20.0 20.1 20.1 20.1 20.2 20.2 20.2 20.3 20.3 20.4 20.5 20.6 20.8 20.9 21.1 21.2 21.5 21.7 22.0 22.4 22.8 23.3 23.9 24.6 20.0 20.0 20.0 20.1 20.1 20.1 20.2 20.2 20.3 20.3 20.4 20.5 20.5 20.6 20.7 20.8 21.0 21.1 21.3 21.5 21.8 22.1 22.4 22.8 23.3 22.9 20.0 20.0 20.0 20.0 20.0 20.0 20.0 20.0 20.0 20.0 20.0 20.0 20.0 20.0 20.0 20.0 20.0 20.0 20.0 20.0 20.0 20.0 20.0 20.0 20.0 20.0 20.0 20.0 20.0 20.0 20.0 20.0 20.0 20.0 20.0 20.0 20.0 20.0 20.0 20.0 20.0 20.0 20.0 20.0 20.0 20.0 20.0 20.0 20.0 20.0 20.0 20.0 20.0 20.0 20.0 20.0 20.0 20.0 20.0 20.0 20.0 20.0 20.0 20.0 20.1 20.1 20.1 20.1 20.1 20.1 20.1 20.1 20.1 20.1 20.1 20.1 20.1 20.1 20.0 20.0 20.0 20.1 20.1 20.1 20.1 20.1 20.1 20.1 20.1 20.1 20.1 20.1 20.1 20.1 20.1 20.1 20.1 20.1 20.1 20.1 20.1 20.1 20.2 20.2 20.0 20.0 20.0 20.1 20.1 20.1 20.1 20.1 20.1 20.2 20.1 20.1 20.1 20.1 20.1 20.1 20.1 20.2 20.2 20.2 20.2 20.2 20.2 20.2 20.2 20.2 20.0 20.0 20.0 20.1 20.1 20.1 20.1 20.1 20.1 20.2 20.2 20.2 20.2 20.2 20.2 20.2 20.2 20.2 20.2 20.2 20.2 20.2 20.3 20.3 20.3 20.3 20.0 20.0 20.0 20.1 20.1 20.1 20.1 20.1 20.1 20.2 20.2 20.2 20.2 20.2 20.2 20.2 20.3 20.3 20.3 20.3 20.3 20.3 20.3 20.4 20.4 20.4 20.0 20.0 20.0 20.1 20.1 20.1 20.1 20.1 20.1 20.2 20.2 20.2 20.2 20.2 20.3 20.3 20.3 20.3 20.4 20.4 20.4 20.4 20.4 20.5 20.5 20.5 20.0 20.0 20.0 20.1 20.1 20.1 20.1 20.1 20.2 20.2 20.2 20.2 20.3 20.3 20.3 20.3 20.4 20.4 20.4 20.5 20.5 20.5 20.6 20.6 20.6 20.7 20.0 20.0 20.0 20.1 20.1 20.1 20.1 20.2 20.2 20.2 20.2 20.2 20.3 20.3 20.4 20.4 20.4 20.5 20.5 20.6 20.6 20.6 20.7 20.7 20.8 20.8 20.0 20.0 20.0 20.1 20.1 20.1 20.1 20.2 20.2 20.2 20.2 20.3 20.3 20.3 20.4 20.5 20.5 20.5 20.6 20.6 20.7 20.8 20.8 20.9 21.0 21.0 20.0 20.0 20.0 20.1 20.1 20.1 20.1 20.2 20.2 20.2 20.3 20.3 20.3 20.4 20.6 20.8 20.7 20.6 20.7 20.7 20.8 20.9 21.0 21.1 21.1 21.2 20.0 20.0 20.0 20.1 20.1 20.1 20.1 20.2 20.2 20.2 20.3 20.3 20.3 20.4 20.6 20.8 20.8 20.7 20.7 20.8 20.9 21.0 21.1 21.2 21.3 21.5 20.0 20.0 20.0 20.1 20.1 20.1 20.1 20.2 20.2 20.2 20.3 20.3 20.4 20.4 20.5 20.6 20.7 20.8 20.8 20.9 21.0 21.2 21.3 21.4 21.6 21.7 20.0 20.0 20.0 20.0 20.1 20.1 20.1 20.1 20.2 20.2 20.3 20.3 20.4 20.4 20.5 20.6 20.7 20.8 20.9 21.0 21.2 21.3 21.5 21.7 21.8 22.1 20.0 20.0 20.0 20.0 20.1 20.1 20.1 20.1 20.2 20.2 20.2 20.3 20.4 20.4 20.5 20.6 20.8 20.9 21.0 21.2 21.3 21.5 21.7 21.9 22.2 22.4 20.0 20.0 20.0 20.0 20.1 20.1 20.1 20.1 20.2 20.2 20.2 20.3 20.4 20.5 20.6 20.7 20.8 21.0 21.1 21.3 21.5 21.7 21.9 22.2 22.5 22.9 20.0 20.0 20.0 20.0 20.1 20.1 20.1 20.1 20.1 20.2 20.2 20.3 20.4 20.4 20.8 21.1 21.0 21.1 21.2 21.4 21.6 21.9 22.2 22.5 22.9 23.5 20.0 20.0 20.0 20.0 20.1 20.1 20.1 20.1 20.1 20.2 20.2 20.2 20.3 20.3 21.1 21.7 21.4 21.3 21.4 21.6 21.9 22.2 22.5 23.0 24.0 25.3 20.0 20.0 20.0 20.0 20.1 20.1 20.1 20.1 20.1 20.1 20.2 20.2 20.3 20.3 21.4 22.1 21.6 21.5 21.6 21.8 22.1 22.5 23.0 23.5 25.0 27.2 20.0 20.0 20.0 20.0 20.0 20.1 20.1 20.1 20.1 20.1 20.2 20.2 20.3 20.3 21.6 22.5 21.9 21.7 21.8 22.0 22.4 22.8 23.5 24.2 26.9 34.0 20.0 20.0 20.0 20.0 20.0 20.1 20.1 20.1 20.1 20.1 20.2 20.2 20.3 20.3 21.7 22.7 22.1 21.8 21.9 22.1 22.5 23.0 23.7 24.8 29.2 38.9 20.0 20.0 20.0 20.0 20.0 20.1 20.1 20.1 20.1 20.2 20.2 20.2 20.3 20.4 21.7 22.6 22.0 21.8 21.9 22.1 22.5 23.0 23.7 24.9 28.6 35.5 20.0 20.0 20.0 20.0 20.1 20.1 20.1 20.1 20.1 20.2 20.3 20.3 20.4 20.5 21.3 21.8 21.6 21.5 21.7 22.0 22.3 22.8 23.5 24.3 26.1 31.0 20.0 20.0 20.0 20.1 20.1 20.1 20.1 20.2 20.2 20.3 20.3 20.4 20.5 20.7 20.9 21.0 21.1 21.3 21.5 21.8 22.1 22.5 23.0 23.5 24.3 26.7 20.0 20.0 20.0 20.1 20.1 20.1 20.2 20.2 20.3 20.3 20.4 20.4 20.5 20.6 20.7 20.8 21.0 21.2 21.3 21.6 21.9 22.2 22.6 23.0 23.6 23.3 20.0 20.0 20.0 20.0 20.0 20.0 20.0 20.0 20.0 20.0 20.0 20.0 20.0 20.0 20.0 20.0 20.0 20.0 20.0 20.0 20.0 20.0 20.0 20.0 20.0 20.0 20.0 20.0 20.0 20.0 20.0 20.0 20.0 20.0 20.0 20.0 20.0 20.0 20.0 20.0 20.0 20.0 20.0 20.0 20.0 20.0 20.0 20.0 20.0 20.0 20.0 20.1 20.0 20.0 20.0 20.0 20.1 20.1 20.1 20.1 20.1 20.1 20.1 20.1 20.1 20.1 20.1 20.1 20.1 20.1 20.1 20.1 20.1 20.1 20.1 20.1 20.1 20.1 20.0 20.0 20.1 20.1 20.1 20.1 20.1 20.1 20.1 20.1 20.1 20.1 20.1 20.1 20.1 20.1 20.1 20.1 20.1 20.1 20.1 20.1 20.2 20.2 20.2 20.2 20.0 20.0 20.1 20.1 20.1 20.1 20.1 20.1 20.2 20.2 20.2 20.1 20.1 20.2 20.2 20.2 20.2 20.2 20.2 20.2 20.2 20.2 20.2 20.2 20.2 20.3 20.0 20.0 20.1 20.1 20.1 20.1 20.1 20.1 20.2 20.2 20.2 20.2 20.2 20.2 20.2 20.2 20.2 20.2 20.3 20.3 20.3 20.3 20.3 20.3 20.3 20.3 20.0 20.0 20.1 20.1 20.1 20.1 20.1 20.1 20.2 20.2 20.2 20.2 20.2 20.2 20.3 20.3 20.3 20.3 20.3 20.3 20.4 20.4 20.4 20.4 20.4 20.5 20.0 20.0 20.1 20.1 20.1 20.1 20.1 20.1 20.2 20.2 20.2 20.3 20.3 20.3 20.3 20.3 20.4 20.4 20.4 20.4 20.5 20.5 20.5 20.5 20.6 20.6 20.0 20.0 20.0 20.1 20.1 20.1 20.1 20.2 20.2 20.2 20.2 20.3 20.3 20.3 20.4 20.4 20.4 20.5 20.5 20.5 20.6 20.6 20.6 20.7 20.7 20.7 20.0 20.0 20.0 20.1 20.1 20.1 20.1 20.2 20.2 20.2 20.2 20.3 20.3 20.4 20.4 20.5 20.5 20.5 20.6 20.6 20.7 20.7 20.8 20.8 20.9 20.9 20.0 20.0 20.0 20.1 20.1 20.1 20.2 20.2 20.2 20.2 20.3 20.3 20.3 20.4 20.6 20.7 20.6 20.6 20.7 20.7 20.8 20.9 20.9 21.0 21.1 21.1 20.0 20.0 20.0 20.1 20.1 20.1 20.2 20.2 20.2 20.3 20.3 20.3 20.4 20.4 20.7 21.0 20.9 20.7 20.8 20.8 20.9 21.0 21.1 21.2 21.2 21.3 20.0 20.0 20.0 20.1 20.1 20.1 20.2 20.2 20.2 20.3 20.3 20.4 20.4 20.5 20.7 20.9 20.9 20.8 20.8 20.9 21.0 21.1 21.2 21.3 21.5 21.6 20.0 20.0 20.0 20.1 20.1 20.1 20.1 20.2 20.2 20.3 20.3 20.4 20.4 20.5 20.6 20.7 20.8 20.9 20.9 21.0 21.2 21.3 21.4 21.5 21.7 21.8 20.0 20.0 20.0 20.1 20.1 20.1 20.1 20.2 20.2 20.2 20.3 20.4 20.4 20.5 20.6 20.7 20.8 20.9 21.0 21.2 21.3 21.4 21.6 21.8 22.0 22.2 20.0 20.0 20.0 20.1 20.1 20.1 20.1 20.2 20.2 20.2 20.3 20.3 20.4 20.5 20.6 20.7 20.9 21.0 21.1 21.3 21.4 21.6 21.8 22.0 22.3 22.6 20.0 20.0 20.0 20.0 20.1 20.1 20.1 20.1 20.2 20.2 20.3 20.4 20.5 20.6 20.7 20.9 21.0 21.1 21.2 21.4 21.6 21.8 22.1 22.3 22.7 23.3 20.0 20.0 20.0 20.0 20.1 20.1 20.1 20.1 20.2 20.2 20.2 20.4 20.6 20.6 21.0 21.3 21.2 21.2 21.4 21.6 21.8 22.0 22.3 22.7 23.3 24.4 20.0 20.0 20.0 20.0 20.1 20.1 20.1 20.1 20.1 20.1 20.1 20.3 20.6 20.6 21.3 21.9 21.7 21.6 21.6 21.8 22.0 22.3 22.7 23.4 25.6 28.2 20.0 20.0 20.0 20.0 20.1 20.1 20.1 20.1 20.1 20.1 20.1 20.3 20.7 20.7 21.7 22.5 22.1 21.9 21.9 22.0 22.3 22.6 23.1 24.0 27.3 32.9 20.0 20.0 20.0 20.0 20.0 20.1 20.1 20.1 20.1 20.1 20.1 20.3 20.7 20.7 22.0 23.1 22.6 22.2 22.1 22.2 22.5 23.0 23.6 24.6 29.2 45.1 20.0 20.0 20.0 20.0 20.0 20.1 20.1 20.1 20.1 20.1 20.1 20.3 20.7 20.7 22.2 23.5 23.0 22.5 22.3 22.4 22.7 23.2 23.9 25.5 31.8 51.2 20.0 20.0 20.0 20.0 20.0 20.1 20.1 20.1 20.1 20.1 20.1 20.3 20.7 20.7 22.1 23.3 22.9 22.4 22.3 22.4 22.7 23.2 24.0 25.5 31.8 46.9 20.0 20.0 20.0 20.0 20.1 20.1 20.1 20.1 20.2 20.2 20.3 20.5 20.7 20.8 21.6 22.2 22.1 22.0 22.0 22.2 22.5 23.0 23.6 24.7 28.3 39.0 20.0 20.0 20.0 20.1 20.1 20.1 20.1 20.2 20.2 20.3 20.4 20.6 20.7 20.8 21.0 21.2 21.4 21.5 21.7 21.9 22.3 22.7 23.1 23.7 24.6 28.0 20.0 20.0 20.0 20.1 20.1 20.2 20.2 20.2 20.3 20.3 20.4 20.5 20.6 20.7 20.8 21.0 21.1 21.3 21.5 21.8 22.0 22.4 22.7 23.2 23.7 23.6 20.0 20.0 20.0 20.0 20.0 20.0 20.0 20.0 20.0 20.0 20.0 20.0 20.0 20.0 20.0 20.0 20.0 20.0 20.0 20.0 20.0 20.0 20.0 20.0 20.0 20.0 20.0 20.0 20.0 20.0 20.0 20.0 20.0 20.0 20.0 20.0 20.0 20.0 20.0 20.0 20.0 20.0 20.0 20.0 20.0 20.0 20.0 20.0 20.0 20.1 20.1 20.1 20.0 20.0 20.1 20.1 20.1 20.1 20.1 20.1 20.1 20.1 20.1 20.1 20.1 20.1 20.1 20.1 20.1 20.1 20.1 20.1 20.1 20.1 20.1 20.1 20.1 20.1 20.0 20.0 20.1 20.1 20.1 20.1 20.1 20.1 20.1 20.1 20.1 20.1 20.1 20.1 20.1 20.1 20.1 20.1 20.1 20.2 20.2 20.2 20.2 20.2 20.2 20.2 20.0 20.0 20.1 20.1 20.1 20.1 20.1 20.1 20.2 20.2 20.2 20.2 20.2 20.2 20.2 20.2 20.2 20.2 20.2 20.2 20.2 20.2 20.2 20.3 20.3 20.3 20.0 20.0 20.1 20.1 20.1 20.1 20.1 20.2 20.2 20.2 20.2 20.2 20.2 20.2 20.3 20.3 20.3 20.3 20.3 20.3 20.3 20.3 20.3 20.3 20.4 20.4 20.0 20.0 20.1 20.1 20.1 20.1 20.2 20.2 20.2 20.2 20.3 20.3 20.3 20.3 20.3 20.3 20.4 20.4 20.4 20.4 20.4 20.4 20.5 20.5 20.5 20.5 20.0 20.0 20.1 20.1 20.1 20.1 20.2 20.2 20.2 20.2 20.3 20.3 20.3 20.3 20.4 20.4 20.4 20.5 20.5 20.5 20.5 20.6 20.6 20.6 20.6 20.7 20.0 20.0 20.1 20.1 20.1 20.2 20.2 20.2 20.2 20.2 20.3 20.3 20.4 20.4 20.4 20.5 20.5 20.5 20.6 20.6 20.7 20.7 20.7 20.8 20.8 20.8 20.0 20.0 20.1 20.1 20.1 20.2 20.2 20.2 20.2 20.3 20.3 20.3 20.4 20.5 20.5 20.5 20.6 20.6 20.7 20.7 20.8 20.8 20.9 20.9 21.0 21.0 20.0 20.0 20.1 20.1 20.1 20.2 20.2 20.2 20.3 20.3 20.3 20.4 20.4 20.5 20.6 20.6 20.7 20.7 20.8 20.8 20.9 21.0 21.0 21.1 21.2 21.2 20.0 20.0 20.1 20.1 20.1 20.2 20.2 20.2 20.3 20.3 20.4 20.4 20.5 20.5 20.7 20.7 20.8 20.8 20.8 20.9 21.0 21.1 21.2 21.3 21.3 21.4 20.0 20.0 20.0 20.1 20.1 20.2 20.2 20.2 20.3 20.3 20.4 20.4 20.5 20.6 20.7 20.8 20.8 20.9 20.9 21.0 21.1 21.2 21.3 21.4 21.6 21.7 20.0 20.0 20.0 20.1 20.1 20.1 20.2 20.2 20.3 20.3 20.4 20.4 20.5 20.6 20.7 20.8 20.9 20.9 21.0 21.1 21.2 21.4 21.5 21.6 21.8 21.9 20.0 20.0 20.0 20.1 20.1 20.1 20.2 20.2 20.3 20.3 20.4 20.4 20.5 20.6 20.7 20.8 20.9 21.0 21.1 21.3 21.4 21.5 21.7 21.9 22.0 22.2 20.0 20.0 20.0 20.1 20.1 20.1 20.2 20.2 20.2 20.3 20.4 20.4 20.5 20.6 20.7 20.8 21.0 21.1 21.2 21.4 21.5 21.7 21.9 22.1 22.4 22.8 20.0 20.0 20.0 20.1 20.1 20.1 20.1 20.2 20.3 20.3 20.4 20.5 20.6 20.7 20.8 20.9 21.0 21.2 21.3 21.5 21.7 21.9 22.1 22.5 24.1 27.8 20.0 20.0 20.0 20.0 20.1 20.1 20.1 20.2 20.2 20.3 20.4 20.5 20.7 20.8 20.9 21.1 21.2 21.3 21.4 21.6 21.9 22.1 22.4 23.7 29.7 36.2 20.0 20.0 20.0 20.0 20.1 20.1 20.1 20.1 20.2 20.3 20.3 20.6 20.9 21.1 21.2 21.4 21.5 21.6 21.7 21.9 22.1 22.3 22.7 25.2 35.3 42.9 20.0 20.0 20.0 20.0 20.1 20.1 20.1 20.1 20.2 20.3 20.3 20.6 21.0 21.2 21.5 21.8 22.1 22.1 22.1 22.2 22.4 22.7 23.2 25.4 37.1 50.1 20.0 20.0 20.0 20.0 20.1 20.1 20.1 20.1 20.2 20.3 20.3 20.7 21.0 21.3 21.7 22.3 22.6 22.6 22.5 22.5 22.7 23.1 23.7 27.9 43.2 71.0 20.0 20.0 20.0 20.0 20.1 20.1 20.1 20.1 20.2 20.2 20.3 20.7 21.0 21.2 21.7 22.5 23.0 23.0 22.8 22.7 22.9 23.3 24.1 28.9 44.7 79.9 20.0 20.0 20.0 20.0 20.1 20.1 20.1 20.1 20.2 20.3 20.3 20.6 21.0 21.2 21.6 22.3 22.8 22.9 22.8 22.7 22.9 23.4 24.1 26.4 38.1 70.3 20.0 20.0 20.0 20.0 20.1 20.1 20.1 20.2 20.3 20.3 20.5 20.7 21.0 21.2 21.4 21.8 22.2 22.3 22.4 22.4 22.7 23.1 23.7 24.8 30.7 49.7 20.0 20.0 20.0 20.1 20.1 20.1 20.2 20.2 20.3 20.4 20.5 20.7 20.8 21.0 21.1 21.3 21.5 21.7 21.9 22.1 22.4 22.8 23.3 23.8 24.8 28.2 20.0 20.0 20.1 20.1 20.1 20.2 20.2 20.3 20.4 20.4 20.5 20.6 20.7 20.8 21.0 21.1 21.3 21.5 21.7 21.9 22.2 22.5 22.9 23.3 23.8 23.7 20.0 20.0 20.0 20.0 20.0 20.0 20.0 20.0 20.0 20.0 20.0 20.0 20.0 20.0 20.0 20.0 20.0 20.0 20.0 20.0 20.0 20.0 20.0 20.0 20.0 20.0 20.0 20.0 20.1 20.0 20.0 20.0 20.0 20.0 20.0 20.0 20.0 20.0 20.0 20.0 20.0 20.0 20.0 20.0 20.0 20.0 20.1 20.1 20.1 20.1 20.1 20.1 20.0 20.1 20.1 20.1 20.1 20.1 20.1 20.1 20.1 20.1 20.1 20.1 20.1 20.1 20.1 20.1 20.1 20.1 20.1 20.1 20.1 20.1 20.1 20.1 20.1 20.1 20.0 20.0 20.1 20.1 20.1 20.1 20.1 20.1 20.1 20.1 20.1 20.1 20.1 20.2 20.2 20.2 20.2 20.2 20.2 20.2 20.2 20.2 20.2 20.2 20.2 20.2 20.0 20.0 20.1 20.1 20.1 20.1 20.2 20.2 20.2 20.2 20.2 20.2 20.2 20.2 20.2 20.2 20.2 20.2 20.2 20.2 20.2 20.3 20.3 20.3 20.3 20.3 20.0 20.0 20.1 20.1 20.1 20.2 20.2 20.2 20.2 20.2 20.2 20.3 20.3 20.3 20.3 20.3 20.3 20.3 20.3 20.3 20.4 20.4 20.4 20.4 20.4 20.4 20.0 20.0 20.1 20.1 20.1 20.2 20.2 20.2 20.2 20.3 20.3 20.3 20.3 20.4 20.4 20.4 20.4 20.4 20.4 20.5 20.5 20.5 20.5 20.5 20.5 20.5 20.0 20.0 20.1 20.1 20.2 20.2 20.2 20.2 20.2 20.3 20.3 20.3 20.4 20.4 20.4 20.5 20.5 20.5 20.6 20.6 20.6 20.6 20.6 20.6 20.7 20.7 20.0 20.0 20.1 20.1 20.2 20.2 20.2 20.2 20.3 20.3 20.3 20.4 20.4 20.4 20.5 20.5 20.6 20.6 20.6 20.7 20.7 20.8 20.8 20.8 20.8 20.9 20.0 20.0 20.1 20.1 20.2 20.2 20.2 20.3 20.3 20.3 20.4 20.4 20.4 20.5 20.5 20.6 20.6 20.7 20.7 20.8 20.8 20.9 20.9 21.0 21.0 21.1 20.0 20.0 20.1 20.1 20.2 20.2 20.2 20.3 20.3 20.4 20.4 20.4 20.5 20.5 20.6 20.6 20.7 20.7 20.8 20.9 20.9 21.0 21.1 21.1 21.2 21.3 20.0 20.0 20.1 20.1 20.2 20.2 20.2 20.3 20.3 20.4 20.4 20.5 20.5 20.6 20.6 20.7 20.7 20.8 20.9 21.0 21.0 21.1 21.2 21.3 21.4 21.5 20.0 20.0 20.1 20.1 20.1 20.2 20.2 20.3 20.3 20.4 20.4 20.5 20.6 20.6 20.7 20.7 20.8 20.9 21.0 21.1 21.1 21.2 21.3 21.5 21.6 21.7 20.0 20.0 20.1 20.1 20.1 20.2 20.2 20.3 20.3 20.4 20.4 20.5 20.6 20.6 20.7 20.8 20.9 21.0 21.1 21.2 21.3 21.4 21.5 21.6 21.8 21.9 20.0 20.0 20.1 20.1 20.1 20.2 20.2 20.3 20.3 20.4 20.4 20.5 20.6 20.7 20.8 20.8 20.9 21.0 21.1 21.3 21.4 21.5 21.7 21.8 22.0 22.2 20.0 20.0 20.1 20.1 20.1 20.2 20.2 20.3 20.3 20.4 20.4 20.5 20.6 20.7 20.8 20.9 21.0 21.1 21.2 21.4 21.5 21.7 21.9 22.1 22.3 22.9 20.0 20.0 20.1 20.1 20.1 20.2 20.2 20.3 20.3 20.4 20.5 20.6 20.6 20.7 20.8 20.9 21.0 21.2 21.3 21.5 21.7 21.9 22.1 22.4 24.4 29.9 20.0 20.0 20.1 20.1 20.1 20.2 20.2 20.2 20.3 20.5 20.6 20.6 20.7 20.8 20.9 21.0 21.1 21.3 21.4 21.6 21.8 22.1 22.4 23.9 32.6 46.9 20.0 20.0 20.0 20.1 20.1 20.1 20.2 20.2 20.3 20.5 20.6 20.7 20.9 21.0 21.1 21.1 21.3 21.4 21.6 21.8 22.0 22.3 22.9 25.9 42.7 63.2 20.0 20.0 20.0 20.1 20.1 20.1 20.2 20.2 20.3 20.4 20.6 20.8 21.0 21.1 21.3 21.4 21.7 21.9 22.0 22.2 22.4 22.7 23.5 26.8 51.1 80.0 20.0 20.0 20.0 20.1 20.1 20.1 20.2 20.2 20.3 20.4 20.6 20.8 21.0 21.1 21.3 21.6 22.1 22.5 22.6 22.7 22.9 23.1 23.9 32.4 69.7 117.2 20.0 20.0 20.0 20.1 20.1 20.1 20.1 20.2 20.3 20.4 20.6 20.7 20.9 21.1 21.3 21.7 22.4 23.0 23.1 23.1 23.2 23.5 24.5 36.3 75.1 134.4 20.0 20.0 20.0 20.1 20.1 20.1 20.2 20.2 20.3 20.4 20.6 20.7 20.9 21.1 21.3 21.6 22.2 22.8 23.0 23.1 23.2 23.5 24.5 31.2 56.9 112.5 20.0 20.0 20.0 20.1 20.1 20.1 20.2 20.3 20.3 20.5 20.6 20.8 20.9 21.1 21.3 21.5 21.8 22.2 22.5 22.6 22.9 23.2 23.8 26.1 37.3 71.7 20.0 20.0 20.1 20.1 20.1 20.2 20.3 20.3 20.4 20.5 20.6 20.8 20.9 21.0 21.2 21.3 21.5 21.8 22.0 22.2 22.5 22.9 23.3 24.1 25.8 35.2 20.0 20.0 20.1 20.1 20.2 20.2 20.3 20.4 20.5 20.5 20.6 20.7 20.8 20.9 21.1 21.2 21.3 21.5 21.7 21.9 22.2 22.5 22.9 23.3 23.8 24.3 20.1 20.0 20.0 20.0 20.0 20.0 20.0 20.0 20.0 20.0 20.0 20.0 20.0 20.0 20.0 20.0 20.0 20.0 20.0 20.0 20.0 20.0 20.0 20.0 20.0 20.0 20.0 20.1 20.1 20.1 20.1 20.1 20.0 20.0 20.0 20.0 20.0 20.0 20.0 20.0 20.0 20.0 20.0 20.0 20.0 20.0 20.1 20.1 20.1 20.1 20.1 20.1 20.0 20.1 20.1 20.1 20.1 20.1 20.1 20.1 20.1 20.1 20.1 20.1 20.1 20.1 20.1 20.1 20.1 20.1 20.1 20.1 20.1 20.1 20.1 20.1 20.1 20.1 20.0 20.1 20.1 20.1 20.1 20.1 20.2 20.2 20.2 20.2 20.2 20.2 20.2 20.2 20.2 20.2 20.2 20.2 20.2 20.2 20.2 20.2 20.2 20.2 20.2 20.2 20.0 20.1 20.1 20.1 20.2 20.2 20.2 20.2 20.2 20.2 20.2 20.2 20.2 20.3 20.3 20.3 20.3 20.3 20.3 20.3 20.3 20.3 20.3 20.3 20.3 20.3 20.0 20.0 20.1 20.1 20.2 20.2 20.2 20.2 20.2 20.3 20.3 20.3 20.3 20.3 20.3 20.3 20.4 20.4 20.4 20.4 20.4 20.4 20.4 20.4 20.4 20.4 20.0 20.0 20.1 20.1 20.2 20.2 20.2 20.2 20.3 20.3 20.3 20.3 20.4 20.4 20.4 20.4 20.4 20.5 20.5 20.5 20.5 20.5 20.5 20.5 20.5 20.6 20.0 20.0 20.1 20.1 20.2 20.2 20.2 20.3 20.3 20.3 20.3 20.4 20.4 20.4 20.5 20.5 20.5 20.6 20.6 20.6 20.6 20.6 20.7 20.7 20.7 20.7 20.0 20.0 20.1 20.1 20.2 20.2 20.3 20.3 20.3 20.3 20.4 20.4 20.4 20.5 20.5 20.6 20.6 20.6 20.7 20.7 20.7 20.8 20.8 20.8 20.9 20.9 20.0 20.0 20.1 20.1 20.2 20.2 20.3 20.3 20.3 20.4 20.4 20.4 20.5 20.5 20.6 20.6 20.6 20.7 20.7 20.8 20.8 20.9 20.9 21.0 21.1 21.1 20.0 20.0 20.1 20.1 20.2 20.2 20.3 20.3 20.4 20.4 20.4 20.5 20.5 20.5 20.6 20.6 20.7 20.7 20.8 20.9 20.9 21.0 21.1 21.2 21.2 21.3 20.0 20.0 20.1 20.1 20.2 20.2 20.3 20.3 20.4 20.4 20.4 20.5 20.5 20.6 20.6 20.7 20.7 20.8 20.9 20.9 21.0 21.1 21.2 21.3 21.4 21.5 20.0 20.0 20.1 20.1 20.2 20.2 20.3 20.3 20.4 20.4 20.5 20.5 20.6 20.6 20.7 20.7 20.8 20.9 20.9 21.0 21.1 21.2 21.3 21.4 21.6 21.7 20.0 20.0 20.1 20.1 20.2 20.2 20.3 20.3 20.4 20.4 20.5 20.5 20.6 20.7 20.7 20.8 20.9 20.9 21.0 21.1 21.2 21.3 21.4 21.6 21.8 22.0 20.0 20.0 20.1 20.1 20.2 20.2 20.3 20.3 20.4 20.4 20.5 20.5 20.6 20.7 20.7 20.8 20.9 21.0 21.1 21.2 21.3 21.4 21.6 21.8 22.0 22.2 20.0 20.0 20.1 20.1 20.2 20.2 20.3 20.3 20.4 20.4 20.5 20.6 20.6 20.7 20.8 20.9 20.9 21.1 21.2 21.3 21.4 21.6 21.8 22.0 22.2 22.7 20.0 20.0 20.1 20.1 20.2 20.2 20.3 20.3 20.4 20.5 20.5 20.6 20.6 20.7 20.8 20.9 21.0 21.1 21.2 21.4 21.6 21.8 22.0 22.3 23.0 26.1 20.0 20.0 20.1 20.1 20.2 20.2 20.3 20.4 20.4 20.5 20.6 20.6 20.7 20.8 20.9 21.0 21.1 21.2 21.3 21.5 21.7 21.9 22.2 23.2 28.3 42.0 20.0 20.0 20.1 20.1 20.2 20.2 20.3 20.4 20.4 20.5 20.6 20.7 20.8 20.9 21.0 21.1 21.2 21.3 21.5 21.7 21.9 22.2 22.8 25.6 39.9 65.1 20.0 20.0 20.1 20.1 20.2 20.2 20.3 20.3 20.4 20.5 20.6 20.7 20.9 21.0 21.1 21.3 21.5 21.7 21.9 22.1 22.3 22.7 23.8 27.9 54.8 90.6 20.0 20.0 20.1 20.1 20.1 20.2 20.2 20.3 20.4 20.4 20.5 20.7 20.8 21.0 21.2 21.4 21.8 22.3 22.6 22.7 22.9 23.2 24.3 32.8 78.8 134.3 20.0 20.0 20.1 20.1 20.1 20.2 20.2 20.3 20.3 20.4 20.5 20.6 20.8 20.9 21.1 21.3 21.9 22.7 23.2 23.2 23.4 23.6 25.1 41.7 97.1 162.8 20.0 20.0 20.1 20.1 20.1 20.2 20.2 20.3 20.3 20.4 20.5 20.6 20.8 20.9 21.1 21.3 21.7 22.4 23.0 23.3 23.4 23.7 25.3 39.8 78.6 139.0 20.0 20.0 20.1 20.1 20.2 20.2 20.3 20.3 20.4 20.5 20.6 20.7 20.8 21.0 21.2 21.3 21.6 22.0 22.4 22.7 23.0 23.4 24.6 30.7 46.4 86.8 20.0 20.0 20.1 20.1 20.2 20.3 20.3 20.4 20.5 20.6 20.7 20.8 20.9 21.0 21.2 21.3 21.5 21.7 21.9 22.2 22.5 22.8 23.7 25.9 29.6 43.6 20.0 20.0 20.1 20.2 20.2 20.3 20.4 20.5 20.5 20.6 20.7 20.8 20.9 21.0 21.1 21.2 21.3 21.5 21.7 21.9 22.2 22.4 22.8 23.3 24.0 25.3 20.1 20.1 20.0 20.0 20.0 20.0 20.0 20.0 20.0 20.0 20.0 20.0 20.0 20.0 20.0 20.0 20.0 20.0 20.0 20.0 20.0 20.0 20.0 20.0 20.0 20.0 20.1 20.1 20.1 20.1 20.1 20.1 20.1 20.1 20.0 20.0 20.0 20.0 20.0 20.0 20.0 20.0 20.0 20.0 20.0 20.0 20.1 20.1 20.1 20.1 20.1 20.1 20.0 20.1 20.1 20.1 20.1 20.1 20.1 20.1 20.1 20.1 20.1 20.1 20.1 20.1 20.1 20.1 20.1 20.1 20.1 20.1 20.1 20.1 20.1 20.1 20.1 20.1 20.0 20.1 20.1 20.1 20.2 20.2 20.2 20.2 20.2 20.2 20.2 20.2 20.2 20.2 20.2 20.2 20.2 20.2 20.2 20.2 20.2 20.2 20.2 20.2 20.2 20.2 20.0 20.1 20.1 20.2 20.2 20.2 20.2 20.2 20.2 20.2 20.3 20.3 20.3 20.3 20.3 20.3 20.3 20.3 20.3 20.3 20.3 20.3 20.3 20.3 20.3 20.3 20.0 20.1 20.1 20.2 20.2 20.2 20.2 20.2 20.3 20.3 20.3 20.3 20.3 20.3 20.4 20.4 20.4 20.4 20.4 20.4 20.4 20.4 20.4 20.4 20.4 20.4 20.0 20.0 20.1 20.2 20.2 20.2 20.2 20.3 20.3 20.3 20.3 20.4 20.4 20.4 20.4 20.4 20.5 20.5 20.5 20.5 20.5 20.5 20.5 20.5 20.6 20.6 20.0 20.0 20.1 20.2 20.2 20.2 20.3 20.3 20.3 20.3 20.4 20.4 20.4 20.4 20.5 20.5 20.5 20.6 20.6 20.6 20.6 20.7 20.7 20.7 20.7 20.8 20.0 20.0 20.1 20.2 20.2 20.3 20.3 20.3 20.3 20.4 20.4 20.4 20.4 20.5 20.5 20.5 20.6 20.6 20.7 20.7 20.7 20.8 20.8 20.9 20.9 21.0 20.0 20.0 20.1 20.2 20.2 20.3 20.3 20.3 20.3 20.4 20.4 20.4 20.5 20.5 20.5 20.6 20.6 20.7 20.7 20.8 20.8 20.9 20.9 21.0 21.1 21.2 20.0 20.0 20.1 20.1 20.2 20.3 20.3 20.3 20.4 20.4 20.4 20.5 20.5 20.5 20.6 20.6 20.7 20.7 20.8 20.8 20.9 21.0 21.0 21.1 21.2 21.3 20.0 20.0 20.1 20.1 20.2 20.3 20.3 20.3 20.4 20.4 20.4 20.5 20.5 20.6 20.6 20.7 20.7 20.8 20.8 20.9 21.0 21.1 21.1 21.2 21.4 21.5 20.0 20.0 20.1 20.1 20.2 20.2 20.3 20.3 20.4 20.4 20.5 20.5 20.6 20.6 20.6 20.7 20.8 20.8 20.9 21.0 21.0 21.1 21.2 21.4 21.5 21.7 20.0 20.0 20.1 20.1 20.2 20.2 20.3 20.3 20.4 20.4 20.5 20.5 20.6 20.6 20.7 20.7 20.8 20.9 20.9 21.0 21.1 21.2 21.4 21.5 21.7 21.9 20.0 20.0 20.1 20.1 20.2 20.2 20.3 20.3 20.4 20.4 20.5 20.5 20.6 20.6 20.7 20.8 20.8 20.9 21.0 21.1 21.2 21.4 21.5 21.7 21.9 22.1 20.0 20.0 20.1 20.1 20.2 20.3 20.3 20.4 20.4 20.4 20.5 20.5 20.6 20.7 20.7 20.8 20.9 21.0 21.1 21.2 21.3 21.5 21.7 21.9 22.1 22.5 20.0 20.0 20.1 20.2 20.2 20.3 20.3 20.4 20.4 20.5 20.5 20.6 20.6 20.7 20.7 20.8 20.9 21.0 21.1 21.3 21.4 21.6 21.8 22.2 22.8 23.8 20.0 20.1 20.1 20.2 20.2 20.3 20.4 20.4 20.5 20.5 20.6 20.6 20.7 20.7 20.8 20.9 21.0 21.1 21.2 21.4 21.5 21.8 22.1 23.4 26.9 33.2 20.0 20.0 20.1 20.2 20.2 20.3 20.4 20.5 20.5 20.6 20.6 20.7 20.8 20.9 20.9 21.0 21.1 21.3 21.4 21.6 21.8 22.1 22.7 26.2 36.6 50.4 20.0 20.0 20.1 20.1 20.2 20.3 20.4 20.4 20.5 20.5 20.6 20.7 20.8 20.9 21.1 21.2 21.3 21.6 21.8 22.0 22.2 22.7 23.9 28.7 48.0 70.8 20.0 2