<?xml version="1.0"?>
<VTKFile type="ImageData" version="1.0" byte_order="LittleEndian" header_type="UInt64">
<ImageData WholeExtent="0 25 25 50 1 1"
 Origin="0.0000 15.0000 0.0000" Spacing="0.6000 0.6000 0.6000">
<Piece Extent="0 25 25 50 1 1">
<PointData>
<DataArray Name="TEMPERATURE" NumberOfComponents="1" type="Float32" format="ascii">
20.3 21.4 24.0 26.8 28.8 29.4 28.2 26.7 26.8 28.9 30.3 29.2 27.3 26.4 26.3 27.1 32.9 48.0 62.0 63.6 55.7 46.3 39.2 33.7 33.1 30.2 20.7 22.6 26.3 29.6 31.5 31.4 29.4 27.3 26.9 28.3 29.3 28.6 27.4 26.9 27.1 27.9 28.7 33.7 45.5 56.1 57.6 52.4 46.1 39.4 35.3 34.1 20.8 23.0 27.3 30.7 32.4 32.0 29.6 27.2 26.8 27.6 28.0 27.5 26.8 26.9 28.2 29.3 29.1 28.8 33.4 44.2 52.7 54.3 51.9 47.7 43.8 40.5 20.4 22.1 26.1 29.9 31.8 31.6 29.2 26.6 25.9 26.5 27.2 27.0 26.3 26.5 28.5 30.2 30.0 28.7 29.0 35.2 44.0 49.2 51.2 51.0 48.4 43.8 20.1 20.8 23.4 27.4 30.3 30.9 29.1 26.2 24.8 25.3 26.7 27.3 26.4 25.8 27.4 29.7 30.5 29.5 28.2 29.7 34.6 39.2 42.3 44.7 43.9 40.8 20.0 20.1 21.1 24.1 27.8 29.9 29.4 26.7 24.6 24.7 26.4 27.4 26.3 24.9 25.6 28.5 30.8 30.5 28.9 27.8 28.9 30.8 32.6 34.7 35.2 35.6 20.0 20.0 20.2 21.5 24.7 28.2 29.5 27.7 25.0 24.3 25.2 25.8 25.1 24.2 24.9 28.7 32.3 32.1 30.3 29.1 28.6 28.3 28.2 28.3 28.3 30.1 20.0 20.0 20.1 20.4 22.7 26.7 29.4 28.5 25.6 23.8 23.7 23.8 23.6 23.8 26.2 31.4 35.0 34.3 32.4 31.5 30.9 29.6 28.1 27.2 26.6 27.1 20.0 20.0 20.1 20.2 22.2 26.3 29.5 29.1 26.2 23.8 23.1 23.1 23.2 23.9 27.8 34.8 38.8 37.8 36.0 35.0 33.7 31.5 29.3 28.3 27.7 27.0 20.0 20.0 20.1 20.3 22.4 26.6 29.7 29.5 26.7 24.1 23.5 23.7 23.7 24.3 29.2 37.5 42.0 41.6 40.2 38.3 35.9 33.2 31.1 30.5 29.7 28.4 20.0 20.1 20.1 20.3 22.6 26.9 29.9 29.8 27.1 24.7 24.6 25.4 25.1 24.8 29.4 36.6 40.4 41.2 40.4 38.8 37.3 35.3 34.2 34.3 32.2 29.6 20.0 20.1 20.1 20.3 22.3 26.4 29.8 30.1 28.0 25.7 25.9 27.4 26.8 25.4 27.1 30.8 33.5 34.7 34.8 36.5 38.6 37.5 37.4 39.0 35.6 31.2 20.0 20.1 20.1 20.4 22.0 25.5 29.3 30.9 29.7 27.6 27.4 28.5 27.5 25.5 25.2 26.3 27.4 27.4 28.3 34.0 39.0 37.7 38.2 42.3 39.9 35.2 20.0 20.0 20.1 20.7 22.4 25.4 29.2 31.9 32.3 31.1 29.8 28.9 27.3 25.8 25.4 25.8 25.3 24.1 25.8 32.4 37.5 36.0 37.1 42.8 42.7 39.6 20.0 20.0 20.2 21.1 23.6 27.0 30.6 33.7 35.6 35.3 33.0 30.4 28.6 27.5 26.9 26.3 24.9 24.0 26.5 31.7 35.2 34.8 36.3 40.9 41.6 40.5 20.0 20.0 20.1 21.3 24.5 29.0 33.1 36.6 38.7 38.2 35.8 33.8 32.4 30.5 28.5 26.6 24.9 25.1 28.4 32.0 34.0 34.9 36.5 38.4 38.5 37.9 20.0 20.0 20.1 20.9 24.2 29.6 35.0 38.7 40.1 39.0 37.5 37.4 36.5 33.1 29.2 26.7 25.6 27.2 30.4 32.7 33.8 34.6 36.2 37.1 36.1 34.5 20.0 20.0 20.0 20.3 22.7 28.5 35.3 39.3 39.5 38.0 37.5 38.2 37.5 33.8 29.6 27.4 27.7 30.0 31.8 32.7 33.4 33.9 35.1 36.0 35.1 32.3 20.0 20.0 20.0 20.1 21.3 26.7 34.6 39.2 38.7 36.3 35.1 35.6 35.9 33.9 31.0 29.7 30.8 32.3 31.9 31.6 32.4 33.1 33.7 33.4 32.4 30.4 20.0 20.0 20.0 20.0 20.5 24.4 32.0 37.6 37.6 34.6 32.4 32.2 33.5 33.9 32.9 32.5 33.0 32.5 30.5 29.9 30.6 31.5 32.2 30.4 28.4 28.4 20.0 20.0 20.0 20.0 20.1 21.7 26.8 32.2 33.4 31.5 30.4 30.4 31.2 32.6 33.1 33.2 32.6 30.8 29.1 29.3 29.9 30.5 30.9 29.0 26.9 27.5 20.0 20.0 20.0 20.0 20.0 20.3 21.9 24.8 26.3 26.4 28.1 29.7 29.8 30.3 30.8 31.1 30.5 29.5 29.3 30.2 31.2 31.6 31.2 29.7 27.9 27.7 20.0 20.0 20.0 20.0 20.0 20.0 20.2 20.7 21.3 22.1 24.9 28.0 28.6 28.2 28.6 29.3 29.6 29.8 31.1 33.0 34.5 34.9 33.9 31.9 30.1 29.5 20.0 20.0 20.0 20.0 20.0 20.0 20.0 20.0 20.1 20.3 21.7 24.0 25.3 25.6 27.3 29.7 30.9 31.1 32.4 35.5 38.1 38.2 35.8 33.4 32.6 33.1 20.0 20.0 20.0 20.0 20.0 20.0 20.0 20.0 20.0 20.0 20.2 20.9 21.6 22.2 24.4 28.2 30.7 30.5 30.2 33.0 36.8 37.4 34.0 31.5 33.3 35.8 20.0 20.0 20.0 20.0 20.0 20.0 20.0 20.0 20.0 20.0 20.0 20.1 20.2 20.5 22.1 26.0 29.2 29.1 28.0 29.9 34.2 35.5 31.9 29.6 32.9 36.6 
</DataArray>
</PointData>
</Piece>
</ImageData>
</VTKFile>
