<?xml version="1.0"?>
<VTKFile type="ImageData" version="1.0" byte_order="LittleEndian" header_type="UInt64">
<ImageData WholeExtent="25 50 25 50 0 15"
 Origin="15.0000 15.0000 0.0000" Spacing="0.6000 0.6000 0.6000">
<Piece Extent="25 50 25 50 0 15">
<PointData>
<DataArray Name="TEMPERATURE" NumberOfComponents="1" type="Float32" format="ascii">
22.4 23.9 24.5 25.4 26.5 27.3 27.6 26.9 25.6 24.6 24.0 23.5 23.0 22.6 22.3 22.0 21.6 21.3 21.1 20.8 20.7 20.5 20.4 20.3 20.1 20.1 22.8 23.2 23.8 24.5 25.4 26.1 26.3 25.9 24.9 24.1 23.6 23.1 22.8 22.4 22.1 21.8 21.5 21.2 21.0 20.8 20.6 20.5 20.4 20.2 20.1 20.1 22.5 22.9 23.3 23.9 24.7 25.1 25.1 24.7 24.2 23.5 23.2 22.9 22.5 22.2 22.0 21.7 21.5 21.2 20.9 20.7 20.6 20.4 20.3 20.2 20.1 20.0 22.2 22.5 22.9 23.5 24.0 24.2 24.2 23.9 23.5 23.1 22.8 22.6 22.3 22.1 21.8 21.6 21.4 21.2 20.9 20.7 20.5 20.4 20.3 20.2 20.1 20.0 22.0 22.2 22.5 23.0 23.3 23.5 23.6 23.4 23.0 22.7 22.5 22.3 22.1 21.9 21.7 21.5 21.3 21.1 20.9 20.7 20.5 20.4 20.3 20.2 20.1 20.0 21.7 21.9 22.1 22.4 22.8 23.0 23.1 23.0 22.7 22.4 22.2 22.0 21.9 21.7 21.6 21.4 21.3 21.1 20.9 20.7 20.5 20.4 20.3 20.2 20.1 20.0 21.5 21.7 21.8 22.2 22.5 22.6 22.7 22.5 22.3 22.1 21.9 21.8 21.7 21.5 21.4 21.3 21.2 21.0 20.9 20.7 20.5 20.4 20.3 20.2 20.1 20.0 21.3 21.5 21.6 21.9 22.1 22.2 22.3 22.2 22.1 21.9 21.7 21.6 21.5 21.4 21.3 21.2 21.1 21.0 20.8 20.7 20.5 20.4 20.3 20.2 20.1 20.0 21.2 21.3 21.4 21.6 21.8 21.9 22.0 22.0 21.8 21.7 21.5 21.4 21.3 21.3 21.2 21.1 21.0 20.9 20.8 20.7 20.5 20.4 20.3 20.2 20.1 20.0 21.0 21.1 21.2 21.4 21.6 21.7 21.7 21.7 21.6 21.5 21.3 21.3 21.2 21.1 21.1 21.0 20.9 20.8 20.7 20.6 20.5 20.4 20.2 20.2 20.1 20.0 20.9 21.0 21.1 21.3 21.4 21.4 21.4 21.5 21.5 21.3 21.2 21.1 21.1 21.0 20.9 20.9 20.8 20.8 20.7 20.6 20.5 20.4 20.2 20.1 20.1 20.0 20.8 20.8 21.0 21.1 21.2 21.2 21.2 21.3 21.3 21.2 21.1 21.0 20.9 20.9 20.9 20.8 20.7 20.7 20.6 20.6 20.5 20.3 20.2 20.1 20.1 20.0 20.7 20.7 20.9 21.0 21.1 21.1 21.1 21.1 21.1 21.1 21.0 20.9 20.8 20.8 20.8 20.7 20.7 20.6 20.6 20.5 20.4 20.3 20.2 20.1 20.1 20.0 20.6 20.7 20.8 20.9 21.0 20.9 20.9 21.0 21.0 21.0 20.9 20.8 20.7 20.7 20.7 20.6 20.6 20.6 20.5 20.5 20.4 20.3 20.2 20.1 20.1 20.0 20.5 20.6 20.7 20.8 20.8 20.8 20.8 20.8 20.9 20.9 20.8 20.7 20.6 20.6 20.6 20.6 20.5 20.5 20.5 20.4 20.4 20.3 20.2 20.1 20.1 20.0 20.5 20.5 20.6 20.7 20.7 20.7 20.7 20.7 20.8 20.8 20.7 20.6 20.6 20.5 20.5 20.5 20.5 20.5 20.4 20.4 20.4 20.3 20.2 20.1 20.1 20.0 20.4 20.5 20.6 20.6 20.6 20.6 20.6 20.6 20.7 20.7 20.6 20.6 20.5 20.5 20.5 20.5 20.4 20.4 20.4 20.4 20.3 20.3 20.2 20.1 20.1 20.0 20.4 20.4 20.5 20.6 20.6 20.5 20.5 20.5 20.6 20.6 20.6 20.5 20.4 20.4 20.4 20.4 20.4 20.4 20.3 20.3 20.3 20.3 20.2 20.1 20.1 20.0 20.3 20.4 20.5 20.5 20.5 20.4 20.4 20.5 20.5 20.6 20.5 20.5 20.4 20.4 20.4 20.3 20.3 20.3 20.3 20.3 20.3 20.2 20.2 20.1 20.1 20.0 20.3 20.3 20.4 20.4 20.4 20.4 20.3 20.4 20.4 20.5 20.5 20.4 20.4 20.3 20.3 20.3 20.3 20.3 20.3 20.3 20.2 20.2 20.2 20.1 20.1 20.0 20.2 20.3 20.3 20.3 20.3 20.3 20.3 20.3 20.4 20.4 20.4 20.3 20.3 20.3 20.3 20.3 20.3 20.3 20.2 20.2 20.2 20.2 20.2 20.1 20.1 20.0 20.2 20.2 20.2 20.3 20.2 20.2 20.2 20.2 20.3 20.3 20.3 20.3 20.2 20.2 20.2 20.2 20.2 20.2 20.2 20.2 20.2 20.2 20.2 20.1 20.1 20.0 20.1 20.2 20.2 20.2 20.2 20.1 20.1 20.1 20.2 20.2 20.2 20.2 20.2 20.2 20.2 20.2 20.2 20.2 20.2 20.2 20.2 20.2 20.1 20.1 20.1 20.0 20.1 20.1 20.1 20.1 20.1 20.1 20.1 20.1 20.1 20.1 20.1 20.1 20.1 20.1 20.1 20.1 20.1 20.1 20.1 20.1 20.1 20.1 20.1 20.1 20.1 20.1 20.0 20.0 20.0 20.0 20.0 20.0 20.0 20.0 20.0 20.1 20.1 20.1 20.1 20.0 20.0 20.0 20.0 20.1 20.1 20.1 20.1 20.1 20.1 20.1 20.1 20.1 20.0 20.0 20.0 20.0 20.0 20.0 20.0 20.0 20.0 20.0 20.0 20.0 20.0 20.0 20.0 20.0 20.0 20.0 20.0 20.0 20.0 20.0 20.0 20.1 20.1 20.1 22.6 24.0 24.7 25.9 27.1 28.1 28.6 27.9 26.2 24.9 24.3 23.7 23.2 22.7 22.4 22.0 21.7 21.4 21.1 20.8 20.7 20.5 20.4 20.3 20.1 20.1 23.0 23.5 24.0 24.8 25.7 26.4 26.7 26.1 25.0 24.3 23.8 23.3 22.9 22.5 22.2 21.8 21.5 21.3 21.0 20.8 20.6 20.5 20.3 20.2 20.1 20.1 22.6 23.0 23.5 24.1 24.9 25.4 25.5 25.0 24.3 23.7 23.3 23.0 22.6 22.3 22.0 21.7 21.5 21.2 21.0 20.7 20.6 20.4 20.3 20.2 20.1 20.0 22.3 22.6 23.0 23.6 24.2 24.5 24.5 24.1 23.7 23.2 22.9 22.6 22.4 22.1 21.9 21.6 21.4 21.2 20.9 20.7 20.5 20.4 20.3 20.2 20.1 20.0 22.0 22.3 22.6 23.0 23.5 23.8 23.8 23.5 23.2 22.8 22.6 22.3 22.1 21.9 21.7 21.5 21.3 21.1 20.9 20.7 20.5 20.4 20.3 20.2 20.1 20.0 21.8 22.0 22.2 22.5 22.9 23.2 23.3 23.1 22.7 22.5 22.3 22.1 21.9 21.7 21.5 21.4 21.2 21.1 20.9 20.7 20.5 20.4 20.3 20.2 20.1 20.0 21.5 21.7 21.9 22.2 22.5 22.7 22.8 22.6 22.4 22.1 22.0 21.8 21.7 21.5 21.4 21.3 21.1 21.0 20.8 20.7 20.5 20.4 20.3 20.2 20.1 20.0 21.3 21.5 21.6 21.9 22.2 22.3 22.3 22.3 22.1 21.9 21.7 21.6 21.5 21.4 21.3 21.1 21.0 20.9 20.8 20.7 20.5 20.4 20.2 20.2 20.1 20.0 21.2 21.3 21.4 21.7 21.9 22.0 22.0 22.0 21.8 21.7 21.5 21.4 21.3 21.2 21.1 21.0 20.9 20.9 20.7 20.6 20.5 20.4 20.2 20.1 20.1 20.0 21.0 21.1 21.2 21.4 21.6 21.7 21.7 21.7 21.6 21.5 21.3 21.2 21.2 21.1 21.0 20.9 20.9 20.8 20.7 20.6 20.5 20.3 20.2 20.1 20.1 20.0 20.9 20.9 21.1 21.2 21.4 21.4 21.4 21.5 21.4 21.3 21.2 21.1 21.0 21.0 20.9 20.8 20.8 20.7 20.6 20.6 20.4 20.3 20.2 20.1 20.1 20.0 20.7 20.8 20.9 21.1 21.2 21.2 21.2 21.3 21.3 21.2 21.0 20.9 20.9 20.9 20.8 20.7 20.7 20.6 20.6 20.5 20.4 20.3 20.2 20.1 20.1 20.0 20.6 20.7 20.8 20.9 21.0 21.0 21.0 21.1 21.1 21.0 20.9 20.8 20.8 20.8 20.7 20.7 20.6 20.6 20.5 20.5 20.4 20.3 20.2 20.1 20.1 20.0 20.6 20.6 20.7 20.8 20.9 20.9 20.9 20.9 21.0 20.9 20.8 20.7 20.7 20.7 20.6 20.6 20.6 20.5 20.5 20.4 20.4 20.3 20.2 20.1 20.1 20.0 20.5 20.5 20.6 20.7 20.8 20.8 20.7 20.8 20.9 20.8 20.7 20.6 20.6 20.6 20.6 20.5 20.5 20.5 20.4 20.4 20.4 20.3 20.2 20.1 20.1 20.0 20.4 20.5 20.5 20.7 20.7 20.7 20.6 20.7 20.7 20.7 20.7 20.6 20.5 20.5 20.5 20.5 20.4 20.4 20.4 20.4 20.3 20.3 20.2 20.1 20.1 20.0 20.4 20.4 20.5 20.6 20.6 20.6 20.5 20.6 20.6 20.6 20.6 20.5 20.5 20.4 20.4 20.4 20.4 20.4 20.3 20.3 20.3 20.3 20.2 20.1 20.1 20.0 20.3 20.4 20.5 20.5 20.5 20.5 20.5 20.5 20.6 20.6 20.5 20.5 20.4 20.4 20.4 20.4 20.3 20.3 20.3 20.3 20.3 20.2 20.2 20.1 20.1 20.0 20.3 20.3 20.4 20.5 20.4 20.4 20.4 20.4 20.5 20.5 20.5 20.4 20.4 20.3 20.3 20.3 20.3 20.3 20.3 20.3 20.2 20.2 20.2 20.1 20.1 20.0 20.3 20.3 20.4 20.4 20.4 20.3 20.3 20.3 20.4 20.4 20.4 20.4 20.3 20.3 20.3 20.3 20.3 20.3 20.2 20.2 20.2 20.2 20.2 20.1 20.1 20.0 20.2 20.2 20.3 20.3 20.3 20.3 20.3 20.3 20.3 20.4 20.4 20.3 20.3 20.3 20.2 20.2 20.2 20.2 20.2 20.2 20.2 20.2 20.2 20.1 20.1 20.0 20.2 20.2 20.2 20.2 20.2 20.2 20.2 20.2 20.2 20.3 20.3 20.3 20.2 20.2 20.2 20.2 20.2 20.2 20.2 20.2 20.2 20.2 20.1 20.1 20.1 20.0 20.1 20.1 20.2 20.2 20.1 20.1 20.1 20.1 20.2 20.2 20.2 20.2 20.2 20.2 20.1 20.1 20.1 20.2 20.2 20.2 20.1 20.1 20.1 20.1 20.1 20.0 20.1 20.1 20.1 20.1 20.1 20.1 20.1 20.1 20.1 20.1 20.1 20.1 20.1 20.1 20.1 20.1 20.1 20.1 20.1 20.1 20.1 20.1 20.1 20.1 20.1 20.1 20.0 20.0 20.0 20.0 20.0 20.0 20.0 20.0 20.0 20.0 20.1 20.1 20.0 20.0 20.0 20.0 20.0 20.0 20.1 20.1 20.1 20.1 20.1 20.1 20.1 20.1 20.0 20.0 20.0 20.0 20.0 20.0 20.0 20.0 20.0 20.0 20.0 20.0 20.0 20.0 20.0 20.0 20.0 20.0 20.0 20.0 20.0 20.0 20.0 20.1 20.1 20.1 22.8 24.4 25.3 27.1 29.0 30.3 31.4 30.0 27.3 25.7 24.9 24.1 23.5 22.9 22.5 22.1 21.7 21.4 21.1 20.8 20.6 20.5 20.3 20.2 20.1 20.1 23.2 23.9 24.5 25.4 26.4 27.3 27.6 26.7 25.6 24.8 24.2 23.6 23.1 22.6 22.2 21.9 21.6 21.3 21.0 20.8 20.6 20.4 20.3 20.2 20.1 20.0 22.8 23.3 23.8 24.5 25.3 26.2 26.3 25.6 24.7 24.2 23.7 23.2 22.8 22.4 22.1 21.8 21.5 21.2 21.0 20.7 20.5 20.4 20.3 20.2 20.1 20.0 22.5 22.9 23.2 23.8 24.6 25.2 25.1 24.6 24.0 23.6 23.2 22.8 22.5 22.2 21.9 21.6 21.4 21.2 20.9 20.7 20.5 20.4 20.3 20.2 20.1 20.0 22.1 22.4 22.8 23.2 23.8 24.3 24.2 23.9 23.4 23.1 22.7 22.5 22.2 21.9 21.7 21.5 21.3 21.1 20.9 20.7 20.5 20.4 20.2 20.2 20.1 20.0 21.8 22.1 22.4 22.8 23.2 23.5 23.6 23.3 22.9 22.6 22.4 22.1 21.9 21.7 21.5 21.3 21.2 21.0 20.8 20.7 20.5 20.4 20.2 20.2 20.1 20.0 21.6 21.8 22.1 22.5 22.8 22.9 23.0 22.8 22.5 22.2 22.0 21.9 21.7 21.5 21.3 21.2 21.1 20.9 20.8 20.6 20.5 20.3 20.2 20.1 20.1 20.0 21.4 21.7 21.9 22.2 22.3 22.4 22.5 22.4 22.2 21.9 21.7 21.6 21.5 21.3 21.2 21.1 21.0 20.8 20.7 20.6 20.5 20.3 20.2 20.1 20.1 20.0 21.3 21.6 21.9 22.0 22.0 22.0 22.1 22.0 21.9 21.7 21.5 21.4 21.3 21.2 21.1 21.0 20.9 20.8 20.7 20.6 20.4 20.3 20.2 20.1 20.1 20.0 21.2 21.5 21.8 21.8 21.7 21.7 21.7 21.7 21.6 21.4 21.3 21.2 21.1 21.0 20.9 20.8 20.8 20.7 20.6 20.5 20.4 20.3 20.2 20.1 20.1 20.0 21.0 21.3 21.5 21.5 21.4 21.4 21.4 21.4 21.4 21.3 21.1 21.0 21.0 20.9 20.8 20.7 20.7 20.6 20.6 20.5 20.4 20.3 20.2 20.1 20.1 20.0 20.8 21.1 21.3 21.3 21.2 21.2 21.2 21.2 21.2 21.1 21.0 20.9 20.8 20.8 20.7 20.7 20.6 20.5 20.5 20.4 20.4 20.3 20.2 20.1 20.1 20.0 20.7 20.9 21.0 21.0 21.0 21.0 21.0 21.0 21.0 21.0 20.8 20.8 20.7 20.7 20.6 20.6 20.5 20.5 20.4 20.4 20.3 20.3 20.2 20.1 20.0 20.0 20.6 20.7 20.8 20.8 20.8 20.8 20.8 20.9 20.9 20.8 20.7 20.7 20.6 20.6 20.6 20.5 20.5 20.4 20.4 20.4 20.3 20.3 20.2 20.1 20.0 20.0 20.5 20.6 20.6 20.7 20.7 20.7 20.7 20.7 20.8 20.7 20.7 20.6 20.5 20.5 20.5 20.5 20.4 20.4 20.4 20.3 20.3 20.2 20.2 20.1 20.0 20.0 20.4 20.4 20.4 20.5 20.6 20.6 20.6 20.6 20.7 20.6 20.6 20.5 20.5 20.4 20.4 20.4 20.4 20.3 20.3 20.3 20.3 20.2 20.2 20.1 20.0 20.0 20.3 20.3 20.4 20.5 20.5 20.5 20.5 20.5 20.6 20.6 20.5 20.4 20.4 20.4 20.4 20.3 20.3 20.3 20.3 20.3 20.2 20.2 20.2 20.1 20.0 20.0 20.3 20.3 20.4 20.4 20.5 20.4 20.4 20.4 20.5 20.5 20.4 20.4 20.3 20.3 20.3 20.3 20.3 20.3 20.2 20.2 20.2 20.2 20.1 20.1 20.0 20.0 20.2 20.2 20.3 20.4 20.4 20.4 20.3 20.4 20.4 20.4 20.4 20.3 20.3 20.3 20.3 20.3 20.2 20.2 20.2 20.2 20.2 20.2 20.1 20.1 20.0 20.0 20.2 20.2 20.3 20.3 20.3 20.3 20.3 20.3 20.3 20.4 20.3 20.3 20.3 20.2 20.2 20.2 20.2 20.2 20.2 20.2 20.2 20.2 20.1 20.1 20.1 20.0 20.2 20.2 20.2 20.3 20.3 20.2 20.2 20.2 20.3 20.3 20.3 20.3 20.2 20.2 20.2 20.2 20.2 20.2 20.2 20.2 20.1 20.1 20.1 20.1 20.1 20.0 20.1 20.1 20.2 20.2 20.2 20.2 20.2 20.2 20.2 20.2 20.2 20.2 20.2 20.2 20.2 20.2 20.2 20.2 20.1 20.1 20.1 20.1 20.1 20.1 20.1 20.0 20.1 20.1 20.1 20.1 20.1 20.1 20.1 20.1 20.1 20.2 20.2 20.1 20.1 20.1 20.1 20.1 20.1 20.1 20.1 20.1 20.1 20.1 20.1 20.1 20.1 20.0 20.1 20.1 20.1 20.1 20.1 20.1 20.1 20.1 20.1 20.1 20.1 20.1 20.1 20.1 20.1 20.1 20.1 20.1 20.1 20.1 20.1 20.1 20.1 20.1 20.1 20.0 20.0 20.0 20.0 20.0 20.0 20.0 20.0 20.0 20.0 20.0 20.0 20.0 20.0 20.0 20.0 20.0 20.0 20.0 20.0 20.0 20.0 20.1 20.1 20.1 20.0 20.0 20.0 20.0 20.0 20.0 20.0 20.0 20.0 20.0 20.0 20.0 20.0 20.0 20.0 20.0 20.0 20.0 20.0 20.0 20.0 20.0 20.0 20.0 20.0 20.0 20.0 20.0 23.0 24.9 26.2 28.8 31.7 34.2 35.3 32.1 28.1 26.5 25.5 24.6 23.8 23.2 22.7 22.2 21.8 21.5 21.2 20.9 20.7 20.5 20.3 20.2 20.1 20.0 23.5 24.2 25.0 26.1 27.5 28.6 28.8 27.7 26.3 25.4 24.7 24.0 23.4 22.9 22.4 22.0 21.7 21.4 21.1 20.8 20.6 20.4 20.3 20.2 20.1 20.0 23.0 23.7 24.3 24.9 25.9 26.8 27.0 26.3 25.2 24.6 24.0 23.5 23.0 22.6 22.2 21.8 21.5 21.3 21.0 20.8 20.6 20.4 20.3 20.2 20.1 20.0 22.6 23.1 23.6 24.1 25.0 25.7 25.7 25.1 24.4 23.9 23.4 23.0 22.6 22.3 22.0 21.7 21.4 21.2 21.0 20.7 20.6 20.4 20.3 20.2 20.1 20.0 22.2 22.6 23.1 23.6 24.2 24.6 24.6 24.2 23.7 23.3 22.9 22.6 22.3 22.0 21.7 21.5 21.3 21.1 20.9 20.7 20.5 20.4 20.2 20.2 20.1 20.0 21.9 22.3 22.8 23.2 23.5 23.8 23.8 23.5 23.1 22.8 22.5 22.3 22.0 21.8 21.6 21.4 21.2 21.0 20.8 20.7 20.5 20.4 20.2 20.1 20.1 20.0 21.8 22.2 22.6 22.9 23.0 23.1 23.2 23.0 22.6 22.4 22.1 21.9 21.7 21.5 21.4 21.2 21.1 20.9 20.8 20.6 20.5 20.3 20.2 20.1 20.1 20.0 21.7 22.2 22.7 22.7 22.5 22.6 22.6 22.5 22.3 22.0 21.8 21.7 21.5 21.4 21.2 21.1 20.9 20.8 20.7 20.6 20.5 20.3 20.2 20.1 20.1 20.0 21.7 22.4 22.8 22.6 22.1 22.1 22.2 22.1 21.9 21.7 21.6 21.4 21.3 21.2 21.1 20.9 20.8 20.7 20.6 20.5 20.4 20.3 20.2 20.1 20.1 20.0 21.5 21.9 22.2 22.2 21.8 21.8 21.8 21.8 21.6 21.5 21.3 21.2 21.1 21.0 20.9 20.8 20.7 20.7 20.6 20.5 20.4 20.3 20.2 20.1 20.1 20.0 21.2 21.2 21.4 21.8 21.5 21.5 21.5 21.5 21.4 21.3 21.1 21.0 21.0 20.9 20.8 20.7 20.7 20.6 20.5 20.4 20.4 20.3 20.2 20.1 20.1 20.0 21.0 21.0 21.2 21.4 21.2 21.2 21.2 21.2 21.2 21.1 21.0 20.9 20.8 20.8 20.7 20.6 20.6 20.5 20.5 20.4 20.3 20.3 20.2 20.1 20.0 20.0 20.8 20.9 20.9 21.1 21.0 21.0 21.0 21.0 21.0 21.0 20.8 20.8 20.7 20.7 20.6 20.6 20.5 20.5 20.4 20.4 20.3 20.2 20.2 20.1 20.0 20.0 20.7 20.7 20.7 20.9 20.8 20.8 20.8 20.9 20.9 20.8 20.7 20.6 20.6 20.6 20.5 20.5 20.4 20.4 20.4 20.3 20.3 20.2 20.2 20.1 20.0 20.0 20.5 20.5 20.5 20.6 20.7 20.7 20.7 20.7 20.7 20.7 20.6 20.6 20.5 20.5 20.5 20.4 20.4 20.4 20.3 20.3 20.3 20.2 20.2 20.1 20.0 20.0 20.3 20.3 20.3 20.5 20.6 20.6 20.6 20.6 20.6 20.6 20.5 20.5 20.4 20.4 20.4 20.4 20.3 20.3 20.3 20.3 20.2 20.2 20.2 20.1 20.0 20.0 20.2 20.2 20.3 20.4 20.5 20.5 20.5 20.5 20.5 20.5 20.5 20.4 20.4 20.3 20.3 20.3 20.3 20.3 20.2 20.2 20.2 20.2 20.1 20.1 20.0 20.0 20.2 20.2 20.3 20.4 20.4 20.4 20.4 20.4 20.4 20.5 20.4 20.4 20.3 20.3 20.3 20.3 20.3 20.2 20.2 20.2 20.2 20.2 20.1 20.1 20.0 20.0 20.2 20.2 20.3 20.3 20.4 20.3 20.3 20.3 20.4 20.4 20.4 20.3 20.3 20.3 20.2 20.2 20.2 20.2 20.2 20.2 20.2 20.1 20.1 20.1 20.0 20.0 20.1 20.2 20.2 20.3 20.3 20.3 20.3 20.3 20.3 20.3 20.3 20.3 20.2 20.2 20.2 20.2 20.2 20.2 20.2 20.2 20.1 20.1 20.1 20.1 20.0 20.0 20.1 20.2 20.2 20.2 20.2 20.2 20.2 20.2 20.3 20.3 20.3 20.2 20.2 20.2 20.2 20.2 20.2 20.2 20.1 20.1 20.1 20.1 20.1 20.1 20.0 20.0 20.1 20.1 20.2 20.2 20.2 20.2 20.2 20.2 20.2 20.2 20.2 20.2 20.2 20.2 20.1 20.1 20.1 20.1 20.1 20.1 20.1 20.1 20.1 20.1 20.0 20.0 20.1 20.1 20.1 20.1 20.1 20.1 20.1 20.1 20.1 20.1 20.1 20.1 20.1 20.1 20.1 20.1 20.1 20.1 20.1 20.1 20.1 20.1 20.1 20.1 20.0 20.0 20.0 20.1 20.1 20.1 20.1 20.1 20.1 20.1 20.1 20.1 20.1 20.1 20.1 20.1 20.1 20.1 20.1 20.1 20.1 20.1 20.1 20.1 20.1 20.1 20.0 20.0 20.0 20.0 20.0 20.0 20.0 20.0 20.0 20.0 20.0 20.0 20.0 20.0 20.0 20.0 20.0 20.0 20.0 20.0 20.0 20.0 20.0 20.0 20.0 20.0 20.0 20.0 20.0 20.0 20.0 20.0 20.0 20.0 20.0 20.0 20.0 20.0 20.0 20.0 20.0 20.0 20.0 20.0 20.0 20.0 20.0 20.0 20.0 20.0 20.0 20.0 20.0 20.0 23.2 26.6 29.4 31.2 33.2 36.0 37.3 34.4 29.6 26.9 25.8 24.9 24.1 23.4 22.9 22.4 22.0 21.7 21.4 21.0 20.8 20.6 20.4 20.2 20.1 20.1 23.6 24.7 25.7 26.7 28.1 29.3 29.5 28.3 26.7 25.8 25.0 24.2 23.6 23.1 22.6 22.2 21.9 21.5 21.2 21.0 20.7 20.5 20.3 20.2 20.1 20.1 23.2 23.8 24.6 25.4 26.3 27.0 27.3 26.8 25.6 24.9 24.3 23.7 23.2 22.8 22.4 22.0 21.7 21.4 21.1 20.9 20.7 20.5 20.3 20.2 20.1 20.0 22.7 23.3 23.9 24.5 25.3 25.8 26.0 25.5 24.7 24.1 23.7 23.2 22.8 22.5 22.1 21.8 21.6 21.3 21.1 20.8 20.6 20.4 20.3 20.2 20.1 20.0 22.4 22.9 23.5 24.0 24.5 24.8 24.9 24.5 24.0 23.5 23.1 22.8 22.5 22.2 21.9 21.7 21.4 21.2 21.0 20.8 20.6 20.4 20.3 20.2 20.1 20.0 22.2 22.7 23.3 23.6 23.8 24.0 24.0 23.7 23.4 23.0 22.7 22.4 22.2 21.9 21.7 21.5 21.3 21.1 20.9 20.8 20.6 20.4 20.3 20.2 20.1 20.0 22.1 22.7 23.3 23.3 23.2 23.3 23.3 23.2 22.9 22.6 22.3 22.1 21.9 21.7 21.5 21.3 21.2 21.0 20.9 20.7 20.5 20.4 20.3 20.2 20.1 20.0 22.2 23.0 23.5 23.1 22.7 22.7 22.8 22.7 22.4 22.2 22.0 21.8 21.6 21.5 21.3 21.2 21.0 20.9 20.8 20.7 20.5 20.4 20.3 20.2 20.1 20.0 22.4 23.2 23.5 22.9 22.3 22.3 22.3 22.2 22.1 21.9 21.7 21.5 21.4 21.3 21.2 21.0 20.9 20.8 20.7 20.6 20.5 20.4 20.2 20.1 20.1 20.0 22.0 22.2 22.5 22.4 22.0 21.9 21.9 21.9 21.8 21.6 21.4 21.3 21.2 21.1 21.0 20.9 20.8 20.7 20.6 20.5 20.4 20.3 20.2 20.1 20.1 20.0 21.3 21.1 21.4 21.8 21.6 21.6 21.6 21.6 21.5 21.4 21.2 21.1 21.1 21.0 20.9 20.8 20.7 20.6 20.6 20.5 20.4 20.3 20.2 20.1 20.1 20.0 21.1 20.9 21.1 21.5 21.3 21.3 21.3 21.3 21.3 21.2 21.1 21.0 20.9 20.8 20.8 20.7 20.6 20.6 20.5 20.4 20.4 20.3 20.2 20.1 20.1 20.0 20.9 20.7 20.9 21.2 21.1 21.1 21.1 21.1 21.1 21.0 20.9 20.8 20.8 20.7 20.7 20.6 20.6 20.5 20.5 20.4 20.3 20.3 20.2 20.1 20.1 20.0 20.7 20.6 20.6 20.9 20.9 20.9 20.9 20.9 21.0 20.9 20.8 20.7 20.7 20.6 20.6 20.5 20.5 20.4 20.4 20.4 20.3 20.3 20.2 20.1 20.1 20.0 20.6 20.4 20.4 20.7 20.7 20.7 20.8 20.8 20.8 20.8 20.7 20.6 20.6 20.5 20.5 20.5 20.4 20.4 20.4 20.3 20.3 20.2 20.2 20.1 20.0 20.0 20.3 20.3 20.3 20.5 20.6 20.6 20.6 20.7 20.7 20.7 20.6 20.5 20.5 20.5 20.4 20.4 20.4 20.3 20.3 20.3 20.3 20.2 20.2 20.1 20.0 20.0 20.2 20.2 20.3 20.5 20.5 20.5 20.5 20.6 20.6 20.6 20.5 20.5 20.4 20.4 20.4 20.4 20.3 20.3 20.3 20.2 20.2 20.2 20.2 20.1 20.0 20.0 20.2 20.2 20.3 20.4 20.5 20.4 20.4 20.5 20.5 20.5 20.4 20.4 20.4 20.3 20.3 20.3 20.3 20.3 20.2 20.2 20.2 20.2 20.1 20.1 20.0 20.0 20.2 20.2 20.3 20.4 20.4 20.4 20.3 20.4 20.4 20.4 20.4 20.3 20.3 20.3 20.3 20.3 20.2 20.2 20.2 20.2 20.2 20.2 20.1 20.1 20.0 20.0 20.1 20.2 20.3 20.3 20.3 20.3 20.3 20.3 20.4 20.4 20.3 20.3 20.3 20.2 20.2 20.2 20.2 20.2 20.2 20.2 20.2 20.1 20.1 20.1 20.0 20.0 20.1 20.2 20.2 20.3 20.3 20.2 20.2 20.3 20.3 20.3 20.3 20.3 20.2 20.2 20.2 20.2 20.2 20.2 20.2 20.1 20.1 20.1 20.1 20.1 20.0 20.0 20.1 20.1 20.2 20.2 20.2 20.2 20.2 20.2 20.2 20.2 20.2 20.2 20.2 20.2 20.2 20.2 20.2 20.1 20.1 20.1 20.1 20.1 20.1 20.1 20.0 20.0 20.1 20.1 20.1 20.1 20.1 20.1 20.1 20.1 20.2 20.2 20.2 20.1 20.1 20.1 20.1 20.1 20.1 20.1 20.1 20.1 20.1 20.1 20.1 20.1 20.0 20.0 20.0 20.1 20.1 20.1 20.1 20.1 20.1 20.1 20.1 20.1 20.1 20.1 20.1 20.1 20.1 20.1 20.1 20.1 20.1 20.1 20.1 20.1 20.1 20.1 20.0 20.0 20.0 20.0 20.0 20.0 20.0 20.0 20.0 20.0 20.0 20.0 20.0 20.0 20.0 20.0 20.0 20.0 20.0 20.0 20.0 20.0 20.0 20.0 20.0 20.0 20.0 20.0 20.0 20.0 20.0 20.0 20.0 20.0 20.0 20.0 20.0 20.0 20.0 20.0 20.0 20.0 20.0 20.0 20.0 20.0 20.0 20.0 20.0 20.0 20.0 20.0 20.0 20.0 23.6 28.4 32.0 33.6 34.4 35.5 36.7 37.4 32.8 27.0 25.8 25.0 24.2 23.6 23.0 22.6 22.2 21.9 21.5 21.2 20.9 20.7 20.4 20.3 20.1 20.1 23.6 24.9 26.3 27.3 28.4 29.3 29.5 28.4 26.8 25.8 25.1 24.4 23.8 23.2 22.8 22.4 22.0 21.7 21.4 21.1 20.8 20.6 20.4 20.3 20.1 20.1 23.2 23.9 24.8 25.7 26.5 27.0 27.2 26.8 25.7 25.0 24.4 23.8 23.3 22.9 22.5 22.2 21.9 21.6 21.3 21.0 20.8 20.6 20.4 20.2 20.1 20.1 22.9 23.5 24.3 24.9 25.5 25.8 26.1 25.7 24.9 24.2 23.8 23.4 23.0 22.6 22.3 22.0 21.7 21.5 21.2 21.0 20.7 20.5 20.3 20.2 20.1 20.1 22.6 23.2 24.0 24.4 24.6 24.9 25.1 24.8 24.1 23.6 23.2 22.9 22.6 22.3 22.1 21.8 21.6 21.4 21.2 20.9 20.7 20.5 20.3 20.2 20.1 20.0 22.5 23.1 23.8 24.0 23.9 24.0 24.1 23.9 23.5 23.1 22.8 22.5 22.3 22.1 21.8 21.6 21.4 21.3 21.1 20.9 20.7 20.5 20.3 20.2 20.1 20.0 22.4 23.2 23.7 23.6 23.4 23.3 23.4 23.3 23.0 22.7 22.4 22.2 22.0 21.8 21.6 21.5 21.3 21.1 21.0 20.8 20.7 20.5 20.3 20.2 20.1 20.0 22.5 23.3 23.7 23.3 22.9 22.9 22.9 22.8 22.6 22.3 22.1 21.9 21.8 21.6 21.5 21.3 21.2 21.0 20.9 20.8 20.6 20.5 20.3 20.2 20.1 20.0 22.7 23.3 23.3 22.8 22.4 22.4 22.4 22.4 22.2 22.0 21.8 21.7 21.5 21.4 21.3 21.2 21.0 20.9 20.8 20.7 20.6 20.4 20.3 20.2 20.1 20.0 22.1 22.3 22.4 22.3 22.0 22.0 22.0 22.0 21.9 21.7 21.6 21.4 21.3 21.2 21.1 21.0 20.9 20.8 20.7 20.6 20.5 20.4 20.3 20.2 20.1 20.0 21.4 21.4 21.7 21.8 21.7 21.7 21.7 21.7 21.6 21.5 21.3 21.2 21.2 21.1 21.0 20.9 20.8 20.7 20.7 20.6 20.5 20.4 20.3 20.2 20.1 20.0 21.2 21.2 21.4 21.5 21.4 21.4 21.4 21.5 21.4 21.3 21.2 21.1 21.0 20.9 20.9 20.8 20.7 20.7 20.6 20.5 20.5 20.4 20.3 20.2 20.1 20.0 21.0 20.9 21.1 21.2 21.2 21.2 21.2 21.2 21.2 21.1 21.0 20.9 20.9 20.8 20.8 20.7 20.7 20.6 20.5 20.5 20.4 20.3 20.2 20.1 20.1 20.0 20.8 20.7 20.8 20.9 21.0 21.0 21.0 21.1 21.1 21.0 20.9 20.8 20.8 20.7 20.7 20.6 20.6 20.5 20.5 20.4 20.4 20.3 20.2 20.1 20.1 20.0 20.6 20.5 20.6 20.7 20.8 20.8 20.8 20.9 20.9 20.9 20.8 20.7 20.6 20.6 20.6 20.6 20.5 20.5 20.4 20.4 20.3 20.3 20.2 20.1 20.1 20.0 20.3 20.3 20.5 20.6 20.7 20.7 20.7 20.8 20.8 20.8 20.7 20.6 20.6 20.5 20.5 20.5 20.5 20.4 20.4 20.3 20.3 20.3 20.2 20.1 20.1 20.0 20.2 20.3 20.4 20.6 20.6 20.6 20.6 20.6 20.7 20.7 20.6 20.5 20.5 20.5 20.4 20.4 20.4 20.4 20.3 20.3 20.3 20.2 20.2 20.1 20.1 20.0 20.2 20.3 20.4 20.5 20.5 20.5 20.5 20.5 20.6 20.6 20.5 20.5 20.4 20.4 20.4 20.4 20.3 20.3 20.3 20.3 20.2 20.2 20.2 20.1 20.1 20.0 20.2 20.3 20.4 20.5 20.5 20.4 20.4 20.5 20.5 20.5 20.5 20.4 20.4 20.3 20.3 20.3 20.3 20.3 20.3 20.2 20.2 20.2 20.2 20.1 20.1 20.0 20.2 20.3 20.3 20.4 20.4 20.3 20.3 20.4 20.4 20.4 20.4 20.4 20.3 20.3 20.3 20.3 20.3 20.2 20.2 20.2 20.2 20.2 20.2 20.1 20.1 20.0 20.2 20.2 20.3 20.3 20.3 20.3 20.3 20.3 20.4 20.4 20.4 20.3 20.3 20.2 20.2 20.2 20.2 20.2 20.2 20.2 20.2 20.2 20.1 20.1 20.1 20.0 20.1 20.2 20.2 20.3 20.2 20.2 20.2 20.2 20.3 20.3 20.3 20.3 20.2 20.2 20.2 20.2 20.2 20.2 20.2 20.2 20.2 20.1 20.1 20.1 20.1 20.0 20.1 20.1 20.2 20.2 20.2 20.1 20.1 20.2 20.2 20.2 20.2 20.2 20.2 20.1 20.1 20.1 20.1 20.1 20.1 20.1 20.1 20.1 20.1 20.1 20.1 20.0 20.1 20.1 20.1 20.1 20.1 20.1 20.1 20.1 20.1 20.1 20.1 20.1 20.1 20.1 20.1 20.1 20.1 20.1 20.1 20.1 20.1 20.1 20.1 20.1 20.1 20.0 20.0 20.0 20.0 20.0 20.0 20.0 20.0 20.0 20.1 20.1 20.1 20.1 20.0 20.0 20.0 20.0 20.0 20.0 20.1 20.1 20.1 20.1 20.1 20.1 20.1 20.0 20.0 20.0 20.0 20.0 20.0 20.0 20.0 20.0 20.0 20.0 20.0 20.0 20.0 20.0 20.0 20.0 20.0 20.0 20.0 20.0 20.0 20.0 20.0 20.0 20.0 20.0 26.8 33.4 34.6 35.3 35.2 34.7 35.3 36.8 33.0 26.9 25.7 24.9 24.1 23.6 23.1 22.6 22.3 22.0 21.7 21.3 21.0 20.7 20.5 20.3 20.2 20.1 23.8 25.9 27.1 27.6 28.5 29.0 29.4 28.7 27.0 25.7 25.0 24.3 23.7 23.2 22.7 22.4 22.1 21.8 21.5 21.2 20.9 20.7 20.5 20.3 20.1 20.1 23.1 23.9 24.9 25.9 26.5 26.9 27.1 26.7 25.6 24.9 24.3 23.8 23.3 22.9 22.5 22.2 21.9 21.6 21.4 21.1 20.9 20.6 20.4 20.3 20.1 20.1 22.9 23.6 24.5 25.1 25.5 25.8 26.0 25.6 24.8 24.2 23.7 23.3 23.0 22.6 22.3 22.0 21.8 21.5 21.3 21.1 20.8 20.6 20.4 20.2 20.1 20.1 22.7 23.4 24.2 24.5 24.6 24.8 25.1 24.8 24.1 23.6 23.2 22.9 22.6 22.3 22.1 21.8 21.6 21.4 21.2 21.0 20.8 20.6 20.4 20.2 20.1 20.1 22.5 23.2 24.0 24.2 24.0 24.1 24.2 24.0 23.5 23.1 22.8 22.6 22.3 22.1 21.9 21.7 21.5 21.3 21.2 21.0 20.8 20.6 20.4 20.2 20.1 20.1 22.4 23.2 23.8 23.7 23.4 23.3 23.4 23.3 23.0 22.7 22.4 22.2 22.1 21.9 21.7 21.5 21.4 21.2 21.1 20.9 20.7 20.6 20.4 20.2 20.1 20.1 22.2 23.0 23.3 23.1 22.8 22.9 22.9 22.8 22.6 22.3 22.1 21.9 21.8 21.7 21.5 21.4 21.2 21.1 21.0 20.9 20.7 20.5 20.4 20.2 20.1 20.1 22.1 22.4 22.6 22.5 22.4 22.4 22.5 22.4 22.2 22.0 21.8 21.7 21.6 21.5 21.4 21.2 21.1 21.0 20.9 20.8 20.7 20.5 20.4 20.2 20.1 20.1 21.7 21.7 21.9 22.1 22.0 22.0 22.0 22.1 22.0 21.8 21.6 21.5 21.4 21.3 21.2 21.1 21.0 20.9 20.8 20.7 20.6 20.5 20.3 20.2 20.1 20.0 21.3 21.3 21.5 21.7 21.7 21.7 21.7 21.8 21.7 21.5 21.4 21.3 21.2 21.2 21.1 21.0 20.9 20.8 20.8 20.7 20.6 20.5 20.3 20.2 20.1 20.0 21.1 21.1 21.2 21.4 21.4 21.4 21.5 21.5 21.5 21.4 21.2 21.1 21.1 21.0 21.0 20.9 20.8 20.7 20.7 20.6 20.5 20.4 20.3 20.2 20.1 20.0 20.9 20.9 21.0 21.2 21.2 21.2 21.2 21.3 21.3 21.2 21.1 21.0 20.9 20.9 20.8 20.8 20.7 20.7 20.6 20.6 20.5 20.4 20.3 20.2 20.1 20.0 20.7 20.7 20.8 21.0 21.1 21.0 21.0 21.1 21.2 21.1 21.0 20.9 20.8 20.8 20.7 20.7 20.7 20.6 20.6 20.5 20.5 20.4 20.3 20.2 20.1 20.0 20.5 20.5 20.7 20.9 20.9 20.9 20.9 21.0 21.0 21.0 20.9 20.8 20.7 20.7 20.7 20.6 20.6 20.5 20.5 20.5 20.4 20.4 20.3 20.2 20.1 20.0 20.4 20.5 20.6 20.8 20.8 20.8 20.8 20.8 20.9 20.9 20.8 20.7 20.6 20.6 20.6 20.6 20.5 20.5 20.5 20.4 20.4 20.3 20.3 20.2 20.1 20.0 20.4 20.5 20.6 20.7 20.7 20.6 20.6 20.7 20.8 20.8 20.7 20.6 20.5 20.5 20.5 20.5 20.5 20.4 20.4 20.4 20.3 20.3 20.3 20.2 20.1 20.0 20.3 20.4 20.5 20.6 20.6 20.5 20.5 20.6 20.7 20.7 20.6 20.5 20.5 20.5 20.4 20.4 20.4 20.4 20.4 20.3 20.3 20.3 20.2 20.2 20.1 20.0 20.3 20.4 20.5 20.5 20.5 20.5 20.5 20.5 20.6 20.6 20.6 20.5 20.4 20.4 20.4 20.4 20.4 20.3 20.3 20.3 20.3 20.3 20.2 20.2 20.1 20.0 20.3 20.4 20.4 20.5 20.4 20.4 20.4 20.4 20.5 20.5 20.5 20.4 20.4 20.3 20.3 20.3 20.3 20.3 20.3 20.3 20.2 20.2 20.2 20.2 20.1 20.0 20.2 20.3 20.4 20.4 20.4 20.3 20.3 20.4 20.4 20.5 20.4 20.4 20.3 20.3 20.3 20.3 20.3 20.3 20.3 20.2 20.2 20.2 20.2 20.1 20.1 20.0 20.2 20.2 20.3 20.3 20.3 20.2 20.2 20.3 20.3 20.4 20.4 20.3 20.3 20.2 20.2 20.2 20.2 20.2 20.2 20.2 20.2 20.2 20.2 20.1 20.1 20.0 20.1 20.2 20.2 20.2 20.2 20.2 20.2 20.2 20.2 20.3 20.3 20.2 20.2 20.2 20.2 20.2 20.2 20.2 20.2 20.2 20.2 20.2 20.2 20.1 20.1 20.1 20.1 20.1 20.1 20.1 20.1 20.1 20.1 20.1 20.1 20.2 20.2 20.1 20.1 20.1 20.1 20.1 20.1 20.1 20.1 20.1 20.1 20.1 20.1 20.1 20.1 20.1 20.0 20.0 20.1 20.1 20.1 20.0 20.0 20.1 20.1 20.1 20.1 20.1 20.1 20.1 20.1 20.1 20.1 20.1 20.1 20.1 20.1 20.1 20.1 20.1 20.1 20.1 20.0 20.0 20.0 20.0 20.0 20.0 20.0 20.0 20.0 20.0 20.0 20.0 20.0 20.0 20.0 20.0 20.0 20.0 20.0 20.0 20.0 20.0 20.1 20.1 20.1 20.1 28.7 41.2 42.9 37.4 33.7 32.6 33.3 32.7 29.8 26.7 25.6 24.7 23.9 23.4 23.0 22.6 22.3 22.0 21.7 21.4 21.1 20.8 20.5 20.3 20.2 20.1 24.0 27.6 29.0 27.9 28.0 28.3 29.1 28.8 27.0 25.6 24.7 24.1 23.5 23.0 22.6 22.3 22.0 21.8 21.5 21.3 21.0 20.7 20.5 20.3 20.1 20.1 23.0 24.0 25.1 25.8 26.3 26.7 26.9 26.5 25.5 24.7 24.1 23.6 23.2 22.8 22.4 22.1 21.8 21.6 21.4 21.2 20.9 20.7 20.4 20.3 20.1 20.1 22.8 23.6 24.6 25.1 25.4 25.6 25.7 25.3 24.6 24.0 23.6 23.2 22.8 22.5 22.2 21.9 21.7 21.5 21.3 21.1 20.9 20.6 20.4 20.3 20.1 20.1 22.5 23.3 24.2 24.5 24.5 24.8 24.9 24.6 24.0 23.5 23.1 22.8 22.5 22.2 22.0 21.8 21.6 21.4 21.3 21.1 20.8 20.6 20.4 20.2 20.1 20.1 22.3 23.1 23.9 24.1 23.9 24.0 24.2 23.9 23.4 23.0 22.7 22.5 22.2 22.0 21.8 21.6 21.5 21.3 21.2 21.0 20.8 20.6 20.4 20.2 20.1 20.1 22.1 22.8 23.4 23.5 23.3 23.3 23.4 23.3 22.9 22.6 22.3 22.1 22.0 21.8 21.6 21.5 21.4 21.2 21.1 21.0 20.8 20.6 20.4 20.2 20.1 20.1 21.8 22.4 22.7 22.8 22.7 22.8 22.9 22.8 22.5 22.2 22.0 21.9 21.8 21.6 21.5 21.4 21.2 21.1 21.0 20.9 20.8 20.6 20.4 20.2 20.1 20.1 21.5 21.8 22.1 22.2 22.3 22.4 22.4 22.4 22.2 22.0 21.8 21.6 21.5 21.4 21.3 21.2 21.1 21.0 20.9 20.8 20.7 20.6 20.4 20.2 20.1 20.1 21.3 21.4 21.7 21.9 22.0 22.0 22.0 22.0 21.9 21.7 21.6 21.4 21.4 21.3 21.2 21.1 21.0 20.9 20.9 20.8 20.7 20.5 20.4 20.2 20.1 20.1 21.1 21.2 21.5 21.6 21.7 21.7 21.7 21.7 21.7 21.5 21.4 21.3 21.2 21.1 21.1 21.0 20.9 20.8 20.8 20.7 20.6 20.5 20.4 20.2 20.1 20.1 20.9 21.1 21.2 21.4 21.4 21.4 21.4 21.5 21.5 21.4 21.2 21.1 21.1 21.0 21.0 20.9 20.8 20.8 20.7 20.7 20.6 20.5 20.4 20.2 20.1 20.1 20.8 20.9 21.1 21.2 21.2 21.2 21.2 21.3 21.3 21.2 21.1 21.0 20.9 20.9 20.9 20.8 20.8 20.7 20.7 20.6 20.6 20.5 20.3 20.2 20.1 20.0 20.6 20.8 20.9 21.1 21.1 21.0 21.0 21.1 21.2 21.1 21.0 20.9 20.8 20.8 20.8 20.7 20.7 20.6 20.6 20.6 20.5 20.4 20.3 20.2 20.1 20.0 20.5 20.7 20.8 20.9 20.9 20.9 20.9 21.0 21.0 21.0 20.9 20.8 20.7 20.7 20.7 20.7 20.6 20.6 20.5 20.5 20.5 20.4 20.3 20.2 20.1 20.0 20.5 20.6 20.7 20.8 20.8 20.8 20.8 20.8 20.9 20.9 20.8 20.7 20.6 20.6 20.6 20.6 20.6 20.5 20.5 20.5 20.4 20.4 20.3 20.2 20.1 20.0 20.5 20.6 20.7 20.7 20.7 20.7 20.6 20.7 20.8 20.8 20.7 20.6 20.6 20.6 20.5 20.5 20.5 20.5 20.5 20.4 20.4 20.4 20.3 20.2 20.1 20.0 20.4 20.5 20.6 20.7 20.6 20.6 20.6 20.6 20.7 20.7 20.7 20.6 20.5 20.5 20.5 20.5 20.5 20.4 20.4 20.4 20.4 20.3 20.3 20.2 20.1 20.0 20.4 20.5 20.6 20.6 20.6 20.5 20.5 20.5 20.6 20.7 20.6 20.5 20.5 20.4 20.4 20.4 20.4 20.4 20.4 20.3 20.3 20.3 20.3 20.2 20.1 20.0 20.4 20.4 20.5 20.5 20.5 20.4 20.4 20.5 20.6 20.6 20.6 20.5 20.4 20.4 20.4 20.4 20.4 20.4 20.3 20.3 20.3 20.3 20.2 20.2 20.1 20.1 20.3 20.4 20.4 20.4 20.4 20.4 20.3 20.4 20.5 20.5 20.5 20.4 20.4 20.3 20.3 20.3 20.3 20.3 20.3 20.3 20.3 20.2 20.2 20.2 20.1 20.1 20.2 20.3 20.3 20.3 20.3 20.3 20.3 20.3 20.4 20.4 20.4 20.4 20.3 20.3 20.3 20.3 20.3 20.3 20.3 20.3 20.2 20.2 20.2 20.2 20.1 20.1 20.2 20.2 20.2 20.2 20.2 20.2 20.2 20.2 20.3 20.3 20.3 20.3 20.3 20.2 20.2 20.2 20.2 20.2 20.2 20.2 20.2 20.2 20.2 20.2 20.1 20.1 20.1 20.1 20.1 20.2 20.1 20.1 20.1 20.1 20.2 20.2 20.2 20.2 20.2 20.1 20.1 20.1 20.1 20.2 20.2 20.2 20.2 20.2 20.2 20.1 20.1 20.1 20.1 20.1 20.1 20.1 20.1 20.1 20.1 20.1 20.1 20.1 20.1 20.1 20.1 20.1 20.1 20.1 20.1 20.1 20.1 20.1 20.1 20.1 20.1 20.1 20.1 20.1 20.0 20.0 20.0 20.0 20.0 20.0 20.0 20.0 20.0 20.0 20.0 20.0 20.0 20.0 20.0 20.0 20.0 20.0 20.0 20.0 20.1 20.1 20.1 20.1 20.1 20.1 28.5 44.8 48.8 39.3 32.8 30.8 32.0 30.8 27.9 26.3 25.2 24.4 23.7 23.2 22.8 22.5 22.2 21.9 21.7 21.4 21.1 20.8 20.5 20.3 20.2 20.1 24.0 27.9 29.6 28.0 27.3 27.5 28.5 28.2 26.6 25.3 24.4 23.8 23.3 22.8 22.4 22.1 21.9 21.7 21.5 21.2 21.0 20.7 20.5 20.3 20.1 20.1 22.9 24.0 25.1 25.7 25.9 26.3 26.7 26.4 25.4 24.5 23.9 23.4 22.9 22.6 22.2 21.9 21.7 21.5 21.3 21.1 20.9 20.7 20.5 20.3 20.1 20.1 22.6 23.5 24.4 24.9 25.0 25.3 25.5 25.2 24.4 23.8 23.3 23.0 22.6 22.3 22.1 21.8 21.6 21.4 21.3 21.1 20.9 20.6 20.4 20.3 20.1 20.1 22.4 23.1 23.9 24.2 24.3 24.6 24.8 24.4 23.7 23.3 22.9 22.6 22.4 22.1 21.9 21.7 21.5 21.3 21.2 21.0 20.8 20.6 20.4 20.2 20.1 20.1 22.1 22.7 23.4 23.7 23.7 24.0 24.1 23.8 23.2 22.8 22.5 22.3 22.1 21.9 21.7 21.5 21.4 21.3 21.1 21.0 20.8 20.6 20.4 20.3 20.1 20.1 21.8 22.3 22.9 23.2 23.1 23.2 23.3 23.1 22.8 22.4 22.2 22.0 21.9 21.7 21.6 21.4 21.3 21.2 21.1 20.9 20.8 20.6 20.4 20.2 20.1 20.1 21.6 21.9 22.3 22.5 22.6 22.6 22.7 22.7 22.4 22.1 21.9 21.8 21.7 21.5 21.4 21.3 21.2 21.1 21.0 20.9 20.8 20.6 20.4 20.2 20.1 20.1 21.4 21.6 21.8 22.0 22.2 22.2 22.3 22.3 22.1 21.9 21.7 21.6 21.5 21.4 21.3 21.2 21.1 21.0 20.9 20.8 20.7 20.6 20.4 20.2 20.1 20.1 21.2 21.4 21.6 21.8 21.8 21.9 21.9 21.9 21.9 21.7 21.5 21.4 21.3 21.2 21.1 21.1 21.0 20.9 20.8 20.8 20.7 20.6 20.4 20.2 20.1 20.1 21.1 21.2 21.4 21.5 21.6 21.5 21.6 21.6 21.6 21.5 21.3 21.2 21.1 21.1 21.0 21.0 20.9 20.8 20.8 20.7 20.6 20.5 20.4 20.2 20.1 20.1 20.9 21.1 21.2 21.3 21.3 21.3 21.3 21.4 21.4 21.3 21.2 21.1 21.0 21.0 20.9 20.9 20.8 20.8 20.7 20.7 20.6 20.5 20.4 20.2 20.1 20.1 20.8 20.9 21.1 21.2 21.2 21.1 21.1 21.2 21.2 21.2 21.0 20.9 20.9 20.9 20.8 20.8 20.7 20.7 20.6 20.6 20.6 20.5 20.4 20.2 20.1 20.1 20.7 20.8 21.0 21.0 21.0 21.0 21.0 21.0 21.1 21.1 20.9 20.8 20.8 20.8 20.7 20.7 20.7 20.6 20.6 20.6 20.5 20.5 20.4 20.2 20.1 20.1 20.6 20.8 20.8 20.9 20.9 20.9 20.8 20.9 21.0 21.0 20.9 20.8 20.7 20.7 20.7 20.6 20.6 20.6 20.5 20.5 20.5 20.4 20.4 20.2 20.1 20.1 20.6 20.7 20.8 20.8 20.8 20.7 20.7 20.8 20.9 20.9 20.8 20.7 20.6 20.6 20.6 20.6 20.6 20.5 20.5 20.5 20.4 20.4 20.3 20.2 20.1 20.1 20.5 20.6 20.7 20.7 20.7 20.7 20.6 20.7 20.8 20.8 20.7 20.6 20.6 20.5 20.5 20.5 20.5 20.5 20.5 20.4 20.4 20.4 20.3 20.2 20.1 20.1 20.5 20.6 20.6 20.7 20.6 20.6 20.6 20.6 20.7 20.7 20.7 20.6 20.5 20.5 20.5 20.5 20.5 20.5 20.4 20.4 20.4 20.4 20.3 20.2 20.1 20.1 20.4 20.5 20.6 20.6 20.6 20.5 20.5 20.5 20.6 20.7 20.6 20.6 20.5 20.4 20.4 20.4 20.4 20.4 20.4 20.4 20.3 20.3 20.3 20.2 20.1 20.1 20.4 20.5 20.5 20.5 20.5 20.4 20.4 20.5 20.6 20.6 20.6 20.5 20.4 20.4 20.4 20.4 20.4 20.4 20.4 20.3 20.3 20.3 20.3 20.2 20.1 20.1 20.4 2