<?xml version="1.0"?>
<VTKFile type="ImageData" version="1.0" byte_order="LittleEndian" header_type="UInt64">
<ImageData WholeExtent="0 25 0 25 0 15"
 Origin="0.0000 0.0000 0.0000" Spacing="0.6000 0.6000 0.6000">
<Piece Extent="0 25 0 25 0 15">
<PointData>
<DataArray Name="TEMPERATURE" NumberOfComponents="1" type="Float32" format="ascii">
20.0 20.0 20.0 20.0 20.0 20.0 20.0 20.0 20.0 20.0 20.0 20.0 20.0 20.0 20.0 20.0 20.0 20.0 20.0 20.0 20.0 20.0 20.0 20.0 20.0 20.0 20.0 20.0 20.0 20.0 20.0 20.0 20.0 20.0 20.0 20.0 20.0 20.0 20.0 20.0 20.0 20.0 20.0 20.0 20.0 20.0 20.1 20.1 20.1 20.1 20.1 20.1 20.0 20.0 20.1 20.1 20.1 20.1 20.1 20.1 20.1 20.1 20.1 20.1 20.1 20.1 20.1 20.1 20.1 20.1 20.1 20.1 20.1 20.1 20.1 20.1 20.1 20.1 20.0 20.0 20.1 20.1 20.1 20.1 20.1 20.1 20.1 20.1 20.1 20.1 20.1 20.1 20.1 20.1 20.1 20.1 20.1 20.1 20.2 20.2 20.2 20.2 20.2 20.2 20.0 20.0 20.1 20.1 20.1 20.1 20.1 20.1 20.1 20.1 20.1 20.1 20.1 20.1 20.2 20.2 20.2 20.2 20.2 20.2 20.2 20.2 20.2 20.3 20.3 20.3 20.0 20.0 20.1 20.1 20.1 20.2 20.2 20.2 20.2 20.2 20.2 20.2 20.2 20.2 20.2 20.2 20.2 20.2 20.3 20.3 20.3 20.3 20.3 20.3 20.4 20.4 20.0 20.0 20.1 20.1 20.1 20.2 20.2 20.2 20.2 20.2 20.2 20.2 20.2 20.2 20.2 20.3 20.3 20.3 20.3 20.3 20.4 20.4 20.4 20.4 20.5 20.5 20.0 20.0 20.0 20.1 20.1 20.2 20.2 20.2 20.3 20.3 20.3 20.3 20.3 20.3 20.3 20.3 20.3 20.4 20.4 20.4 20.4 20.5 20.5 20.5 20.6 20.6 20.0 20.0 20.0 20.1 20.1 20.2 20.2 20.3 20.3 20.3 20.3 20.4 20.4 20.4 20.4 20.4 20.4 20.4 20.5 20.5 20.5 20.6 20.6 20.6 20.7 20.7 20.0 20.0 20.0 20.1 20.1 20.2 20.2 20.3 20.3 20.4 20.4 20.4 20.4 20.5 20.5 20.5 20.5 20.5 20.5 20.6 20.6 20.7 20.7 20.7 20.8 20.9 20.0 20.0 20.0 20.1 20.1 20.1 20.2 20.2 20.3 20.4 20.4 20.5 20.5 20.5 20.6 20.6 20.6 20.6 20.6 20.7 20.7 20.8 20.8 20.9 20.9 21.0 20.0 20.0 20.0 20.1 20.1 20.1 20.2 20.2 20.3 20.4 20.4 20.5 20.5 20.6 20.6 20.7 20.7 20.7 20.8 20.8 20.8 20.9 20.9 21.0 21.1 21.2 20.0 20.0 20.0 20.1 20.1 20.1 20.2 20.2 20.3 20.4 20.4 20.5 20.6 20.6 20.7 20.7 20.8 20.9 20.9 20.9 21.0 21.0 21.1 21.2 21.3 21.3 20.0 20.0 20.0 20.1 20.1 20.1 20.2 20.2 20.3 20.3 20.4 20.5 20.6 20.6 20.7 20.8 20.9 21.0 21.0 21.1 21.1 21.2 21.2 21.3 21.4 21.6 20.0 20.0 20.0 20.1 20.1 20.1 20.2 20.2 20.3 20.3 20.4 20.5 20.6 20.6 20.7 20.8 20.9 21.0 21.1 21.2 21.3 21.4 21.5 21.5 21.7 21.8 20.0 20.0 20.0 20.1 20.1 20.1 20.2 20.2 20.3 20.3 20.4 20.5 20.5 20.6 20.7 20.8 21.0 21.1 21.2 21.4 21.5 21.6 21.7 21.8 21.9 22.1 20.0 20.0 20.1 20.1 20.1 20.2 20.2 20.2 20.3 20.3 20.4 20.5 20.6 20.6 20.7 20.9 21.0 21.1 21.3 21.5 21.7 21.8 22.0 22.1 22.3 22.5 20.0 20.0 20.1 20.1 20.1 20.2 20.2 20.3 20.3 20.4 20.4 20.5 20.6 20.7 20.8 20.9 21.0 21.2 21.3 21.6 21.8 22.0 22.3 22.5 22.7 22.9 20.0 20.0 20.1 20.1 20.1 20.2 20.2 20.3 20.3 20.4 20.5 20.6 20.7 20.7 20.8 21.0 21.1 21.2 21.4 21.6 21.9 22.2 22.5 22.8 23.1 23.5 20.0 20.0 20.1 20.1 20.1 20.2 20.2 20.3 20.3 20.4 20.5 20.6 20.7 20.8 20.9 21.1 21.2 21.4 21.6 21.8 22.1 22.4 22.8 23.2 23.6 24.1 20.0 20.0 20.0 20.1 20.1 20.1 20.2 20.2 20.3 20.4 20.4 20.5 20.6 20.7 20.8 21.0 21.2 21.4 21.6 22.0 22.3 22.7 23.1 23.6 24.3 25.1 20.0 20.0 20.0 20.1 20.1 20.1 20.2 20.2 20.2 20.3 20.4 20.4 20.5 20.6 20.7 20.9 21.1 21.3 21.6 21.9 22.3 22.8 23.3 23.9 24.8 26.1 20.0 20.0 20.0 20.1 20.1 20.1 20.1 20.2 20.2 20.3 20.3 20.4 20.5 20.6 20.7 20.9 21.0 21.2 21.5 21.9 22.2 22.7 23.2 23.9 24.8 26.3 20.0 20.0 20.0 20.1 20.1 20.1 20.2 20.2 20.3 20.3 20.4 20.4 20.5 20.6 20.8 20.9 21.1 21.3 21.5 21.8 22.2 22.5 23.1 23.9 24.6 25.7 20.0 20.0 20.1 20.1 20.1 20.2 20.2 20.3 20.3 20.4 20.5 20.5 20.6 20.7 20.9 21.0 21.2 21.3 21.6 21.8 22.1 22.5 23.0 23.5 24.0 24.8 20.0 20.0 20.1 20.1 20.1 20.2 20.2 20.3 20.4 20.4 20.5 20.6 20.7 20.8 20.9 21.1 21.2 21.4 21.5 21.7 22.0 22.3 22.7 23.1 23.4 23.0 20.0 20.0 20.0 20.0 20.0 20.0 20.0 20.0 20.0 20.0 20.0 20.0 20.0 20.0 20.0 20.0 20.0 20.0 20.0 20.0 20.0 20.0 20.0 20.0 20.0 20.0 20.0 20.0 20.0 20.0 20.0 20.0 20.0 20.0 20.0 20.0 20.0 20.0 20.0 20.0 20.0 20.0 20.0 20.0 20.0 20.0 20.0 20.0 20.1 20.1 20.1 20.1 20.0 20.0 20.1 20.1 20.1 20.1 20.0 20.0 20.0 20.0 20.1 20.1 20.1 20.1 20.1 20.1 20.1 20.1 20.1 20.1 20.1 20.1 20.1 20.1 20.1 20.1 20.0 20.0 20.1 20.1 20.1 20.1 20.1 20.1 20.1 20.1 20.1 20.1 20.1 20.1 20.1 20.1 20.1 20.1 20.1 20.1 20.1 20.2 20.2 20.2 20.2 20.2 20.0 20.0 20.1 20.1 20.1 20.1 20.1 20.1 20.1 20.1 20.1 20.1 20.1 20.1 20.1 20.1 20.2 20.2 20.2 20.2 20.2 20.2 20.2 20.2 20.3 20.3 20.0 20.0 20.0 20.1 20.1 20.2 20.2 20.2 20.2 20.2 20.2 20.2 20.2 20.2 20.2 20.2 20.2 20.2 20.2 20.2 20.3 20.3 20.3 20.3 20.3 20.4 20.0 20.0 20.0 20.1 20.1 20.2 20.2 20.2 20.2 20.2 20.2 20.2 20.2 20.2 20.2 20.2 20.3 20.3 20.3 20.3 20.3 20.4 20.4 20.4 20.4 20.5 20.0 20.0 20.0 20.1 20.1 20.2 20.2 20.2 20.3 20.3 20.3 20.3 20.3 20.3 20.3 20.3 20.3 20.3 20.4 20.4 20.4 20.4 20.5 20.5 20.5 20.6 20.0 20.0 20.0 20.1 20.1 20.1 20.2 20.2 20.3 20.3 20.3 20.3 20.4 20.4 20.4 20.4 20.4 20.4 20.4 20.5 20.5 20.5 20.6 20.6 20.6 20.7 20.0 20.0 20.0 20.1 20.1 20.1 20.2 20.2 20.3 20.3 20.4 20.4 20.4 20.4 20.4 20.5 20.5 20.5 20.5 20.5 20.6 20.6 20.7 20.7 20.8 20.8 20.0 20.0 20.0 20.1 20.1 20.1 20.2 20.2 20.3 20.3 20.4 20.4 20.5 20.5 20.5 20.6 20.6 20.6 20.6 20.6 20.7 20.7 20.8 20.8 20.9 21.0 20.0 20.0 20.0 20.1 20.1 20.1 20.2 20.2 20.3 20.3 20.4 20.5 20.5 20.6 20.6 20.6 20.7 20.7 20.7 20.8 20.8 20.8 20.9 21.0 21.1 21.1 20.0 20.0 20.0 20.1 20.1 20.1 20.2 20.2 20.3 20.3 20.4 20.5 20.5 20.6 20.7 20.7 20.8 20.8 20.9 20.9 20.9 21.0 21.0 21.1 21.2 21.3 20.0 20.0 20.0 20.1 20.1 20.1 20.2 20.2 20.2 20.3 20.4 20.5 20.5 20.6 20.7 20.8 20.8 20.9 21.0 21.1 21.1 21.2 21.2 21.3 21.4 21.6 20.0 20.0 20.0 20.1 20.1 20.1 20.1 20.2 20.2 20.3 20.4 20.4 20.5 20.6 20.7 20.8 20.9 21.0 21.1 21.2 21.3 21.4 21.5 21.5 21.7 21.9 20.0 20.0 20.0 20.1 20.1 20.1 20.1 20.2 20.2 20.3 20.3 20.4 20.5 20.6 20.7 20.8 20.9 21.1 21.2 21.4 21.5 21.6 21.7 21.8 22.0 22.2 20.0 20.0 20.0 20.1 20.1 20.1 20.2 20.2 20.2 20.3 20.4 20.4 20.5 20.6 20.7 20.8 20.9 21.1 21.3 21.5 21.7 21.8 22.0 22.2 22.3 22.6 20.0 20.0 20.0 20.1 20.1 20.1 20.2 20.2 20.3 20.3 20.4 20.4 20.5 20.6 20.7 20.8 21.0 21.1 21.3 21.5 21.8 22.0 22.3 22.5 22.8 23.1 20.0 20.0 20.0 20.1 20.1 20.1 20.2 20.2 20.3 20.3 20.4 20.5 20.6 20.6 20.8 20.9 21.0 21.2 21.4 21.6 21.9 22.2 22.5 22.9 23.2 23.6 20.0 20.0 20.0 20.1 20.1 20.1 20.2 20.2 20.3 20.3 20.4 20.5 20.6 20.7 20.8 21.0 21.1 21.3 21.5 21.8 22.1 22.4 22.8 23.3 23.8 24.3 20.0 20.0 20.0 20.1 20.1 20.1 20.2 20.2 20.2 20.3 20.4 20.4 20.5 20.6 20.8 20.9 21.2 21.4 21.6 22.0 22.3 22.7 23.2 23.7 24.4 25.3 20.0 20.0 20.0 20.1 20.1 20.1 20.1 20.2 20.2 20.3 20.3 20.4 20.5 20.5 20.7 20.9 21.1 21.3 21.6 22.0 22.4 22.9 23.4 24.1 25.1 26.6 20.0 20.0 20.0 20.0 20.1 20.1 20.1 20.2 20.2 20.2 20.3 20.4 20.4 20.5 20.7 20.8 21.0 21.3 21.6 21.9 22.3 22.8 23.5 24.3 25.2 26.9 20.0 20.0 20.0 20.1 20.1 20.1 20.2 20.2 20.2 20.3 20.3 20.4 20.5 20.6 20.7 20.9 21.1 21.3 21.6 21.9 22.2 22.7 23.3 24.1 24.8 26.1 20.0 20.0 20.0 20.1 20.1 20.2 20.2 20.2 20.3 20.3 20.4 20.5 20.6 20.7 20.8 21.0 21.2 21.4 21.6 21.9 22.1 22.5 23.0 23.6 24.1 24.9 20.0 20.0 20.1 20.1 20.1 20.2 20.2 20.3 20.3 20.4 20.5 20.6 20.7 20.8 20.9 21.0 21.2 21.3 21.5 21.7 22.0 22.3 22.7 23.1 23.5 23.1 20.0 20.0 20.0 20.0 20.0 20.0 20.0 20.0 20.0 20.0 20.0 20.0 20.0 20.0 20.0 20.0 20.0 20.0 20.0 20.0 20.0 20.0 20.0 20.0 20.0 20.0 20.0 20.0 20.0 20.0 20.0 20.0 20.0 20.0 20.0 20.0 20.0 20.0 20.0 20.0 20.0 20.0 20.0 20.0 20.0 20.0 20.0 20.0 20.0 20.0 20.1 20.1 20.0 20.0 20.1 20.1 20.1 20.0 20.0 20.0 20.0 20.0 20.0 20.0 20.0 20.1 20.1 20.1 20.1 20.1 20.1 20.1 20.1 20.1 20.1 20.1 20.1 20.1 20.0 20.0 20.1 20.1 20.1 20.1 20.1 20.1 20.1 20.1 20.1 20.1 20.1 20.1 20.1 20.1 20.1 20.1 20.1 20.1 20.1 20.1 20.1 20.2 20.2 20.2 20.0 20.0 20.0 20.1 20.1 20.1 20.1 20.1 20.1 20.1 20.1 20.1 20.1 20.1 20.1 20.1 20.1 20.1 20.2 20.2 20.2 20.2 20.2 20.2 20.2 20.3 20.0 20.0 20.0 20.1 20.1 20.1 20.1 20.1 20.1 20.1 20.1 20.1 20.1 20.2 20.2 20.2 20.2 20.2 20.2 20.2 20.2 20.2 20.3 20.3 20.3 20.3 20.0 20.0 20.0 20.1 20.1 20.1 20.2 20.2 20.2 20.2 20.2 20.2 20.2 20.2 20.2 20.2 20.2 20.2 20.3 20.3 20.3 20.3 20.3 20.4 20.4 20.4 20.0 20.0 20.0 20.1 20.1 20.1 20.2 20.2 20.2 20.2 20.2 20.2 20.3 20.3 20.3 20.3 20.3 20.3 20.3 20.3 20.4 20.4 20.4 20.4 20.5 20.5 20.0 20.0 20.0 20.1 20.1 20.1 20.2 20.2 20.2 20.3 20.3 20.3 20.3 20.3 20.3 20.3 20.3 20.4 20.4 20.4 20.4 20.5 20.5 20.5 20.6 20.6 20.0 20.0 20.0 20.1 20.1 20.1 20.2 20.2 20.2 20.3 20.3 20.3 20.4 20.4 20.4 20.4 20.4 20.4 20.5 20.5 20.5 20.6 20.6 20.7 20.7 20.8 20.0 20.0 20.0 20.1 20.1 20.1 20.2 20.2 20.3 20.3 20.3 20.4 20.4 20.4 20.5 20.5 20.5 20.5 20.6 20.6 20.6 20.7 20.7 20.8 20.9 20.9 20.0 20.0 20.0 20.1 20.1 20.1 20.2 20.2 20.2 20.3 20.3 20.4 20.4 20.5 20.5 20.6 20.6 20.7 20.7 20.7 20.8 20.8 20.9 20.9 21.0 21.1 20.0 20.0 20.0 20.1 20.1 20.1 20.1 20.2 20.2 20.3 20.3 20.4 20.5 20.5 20.6 20.6 20.7 20.8 20.8 20.9 20.9 21.0 21.0 21.1 21.2 21.3 20.0 20.0 20.0 20.0 20.1 20.1 20.1 20.2 20.2 20.3 20.3 20.4 20.5 20.5 20.6 20.7 20.8 20.9 20.9 21.0 21.1 21.2 21.2 21.3 21.5 21.6 20.0 20.0 20.0 20.0 20.1 20.1 20.1 20.2 20.2 20.3 20.3 20.4 20.5 20.5 20.6 20.7 20.8 20.9 21.0 21.2 21.3 21.4 21.5 21.6 21.7 21.9 20.0 20.0 20.0 20.0 20.1 20.1 20.1 20.2 20.2 20.2 20.3 20.4 20.4 20.5 20.6 20.7 20.9 21.0 21.1 21.3 21.5 21.6 21.7 21.9 22.1 22.3 20.0 20.0 20.0 20.0 20.1 20.1 20.1 20.2 20.2 20.2 20.3 20.3 20.4 20.5 20.6 20.7 20.9 21.0 21.2 21.4 21.6 21.8 22.0 22.2 22.5 22.8 20.0 20.0 20.0 20.0 20.1 20.1 20.1 20.1 20.2 20.2 20.3 20.3 20.4 20.5 20.7 20.9 21.0 21.1 21.3 21.5 21.8 22.0 22.3 22.6 23.0 23.4 20.0 20.0 20.0 20.0 20.1 20.1 20.1 20.1 20.2 20.2 20.3 20.3 20.4 20.5 20.8 21.0 21.1 21.2 21.4 21.6 21.9 22.3 22.6 23.0 23.5 24.0 20.0 20.0 20.0 20.0 20.1 20.1 20.1 20.1 20.2 20.2 20.3 20.3 20.4 20.6 20.9 21.2 21.2 21.4 21.5 21.8 22.1 22.5 22.9 23.4 24.1 24.8 20.0 20.0 20.0 20.0 20.1 20.1 20.1 20.1 20.2 20.2 20.2 20.3 20.4 20.5 20.9 21.2 21.3 21.5 21.7 22.0 22.4 22.8 23.3 24.0 24.8 25.8 20.0 20.0 20.0 20.0 20.1 20.1 20.1 20.1 20.1 20.2 20.2 20.3 20.4 20.5 20.9 21.2 21.3 21.5 21.7 22.1 22.5 23.0 23.7 24.6 25.7 27.2 20.0 20.0 20.0 20.0 20.1 20.1 20.1 20.1 20.1 20.2 20.2 20.3 20.4 20.5 20.9 21.2 21.3 21.5 21.7 22.0 22.5 23.0 23.8 24.8 25.8 27.7 20.0 20.0 20.0 20.0 20.1 20.1 20.1 20.1 20.2 20.2 20.3 20.3 20.4 20.6 20.9 21.1 21.2 21.4 21.7 22.0 22.3 22.9 23.6 24.3 25.1 26.5 20.0 20.0 20.0 20.1 20.1 20.1 20.2 20.2 20.2 20.3 20.3 20.4 20.5 20.7 20.8 21.0 21.2 21.4 21.6 21.9 22.2 22.6 23.1 23.7 24.3 25.2 20.0 20.0 20.0 20.1 20.1 20.1 20.2 20.2 20.3 20.3 20.4 20.5 20.6 20.7 20.8 21.0 21.1 21.3 21.5 21.7 22.0 22.3 22.7 23.2 23.7 23.3 20.0 20.0 20.0 20.0 20.0 20.0 20.0 20.0 20.0 20.0 20.0 20.0 20.0 20.0 20.0 20.0 20.0 20.0 20.0 20.0 20.0 20.0 20.0 20.0 20.0 20.0 20.0 20.0 20.0 20.0 20.0 20.0 20.0 20.0 20.0 20.0 20.0 20.0 20.0 20.0 20.0 20.0 20.0 20.0 20.0 20.0 20.0 20.0 20.0 20.0 20.0 20.1 20.0 20.0 20.0 20.1 20.0 20.0 20.0 20.0 20.0 20.0 20.0 20.0 20.0 20.0 20.1 20.1 20.1 20.1 20.1 20.1 20.1 20.1 20.1 20.1 20.1 20.1 20.0 20.0 20.1 20.1 20.1 20.1 20.1 20.1 20.1 20.1 20.1 20.1 20.1 20.1 20.1 20.1 20.1 20.1 20.1 20.1 20.1 20.1 20.1 20.2 20.2 20.2 20.0 20.0 20.1 20.1 20.1 20.1 20.1 20.1 20.1 20.2 20.1 20.1 20.1 20.1 20.1 20.1 20.1 20.1 20.2 20.2 20.2 20.2 20.2 20.2 20.2 20.3 20.0 20.0 20.0 20.1 20.1 20.1 20.1 20.1 20.2 20.2 20.2 20.2 20.2 20.2 20.2 20.2 20.2 20.2 20.2 20.2 20.2 20.3 20.3 20.3 20.3 20.3 20.0 20.0 20.0 20.1 20.1 20.1 20.2 20.2 20.2 20.2 20.2 20.2 20.2 20.2 20.2 20.2 20.2 20.2 20.3 20.3 20.3 20.3 20.3 20.4 20.4 20.4 20.0 20.0 20.0 20.1 20.1 20.1 20.2 20.2 20.2 20.2 20.2 20.3 20.3 20.3 20.3 20.3 20.3 20.3 20.3 20.4 20.4 20.4 20.4 20.5 20.5 20.5 20.0 20.0 20.0 20.1 20.1 20.1 20.2 20.2 20.2 20.2 20.3 20.3 20.3 20.3 20.3 20.3 20.4 20.4 20.4 20.5 20.5 20.5 20.5 20.6 20.6 20.7 20.0 20.0 20.0 20.1 20.1 20.1 20.2 20.2 20.2 20.3 20.3 20.3 20.3 20.4 20.4 20.4 20.4 20.5 20.5 20.5 20.6 20.6 20.6 20.7 20.7 20.8 20.0 20.0 20.0 20.1 20.1 20.1 20.2 20.2 20.2 20.3 20.3 20.3 20.4 20.4 20.5 20.5 20.5 20.5 20.6 20.6 20.7 20.7 20.8 20.8 20.9 21.0 20.0 20.0 20.0 20.1 20.1 20.1 20.1 20.2 20.2 20.3 20.3 20.4 20.4 20.5 20.5 20.5 20.6 20.6 20.7 20.8 20.8 20.9 20.9 21.0 21.1 21.2 20.0 20.0 20.0 20.1 20.1 20.1 20.1 20.2 20.2 20.3 20.3 20.4 20.4 20.5 20.5 20.6 20.7 20.7 20.8 20.9 20.9 21.0 21.1 21.2 21.3 21.4 20.0 20.0 20.0 20.0 20.1 20.1 20.1 20.2 20.2 20.3 20.3 20.4 20.4 20.5 20.6 20.6 20.7 20.8 20.9 21.0 21.1 21.2 21.3 21.4 21.5 21.7 20.0 20.0 20.0 20.0 20.1 20.1 20.1 20.2 20.2 20.2 20.3 20.4 20.4 20.5 20.6 20.7 20.8 20.9 21.0 21.2 21.3 21.4 21.5 21.7 21.8 22.0 20.0 20.0 20.0 20.0 20.1 20.1 20.1 20.1 20.2 20.2 20.3 20.3 20.4 20.5 20.6 20.7 20.8 21.0 21.4 21.6 21.6 21.6 21.8 21.9 22.1 22.4 20.0 20.0 20.0 20.0 20.1 20.1 20.1 20.1 20.2 20.2 20.3 20.3 20.4 20.5 20.7 20.8 20.9 21.0 21.5 21.8 21.8 21.9 22.1 22.3 22.6 22.9 20.0 20.0 20.0 20.0 20.1 20.1 20.1 20.1 20.2 20.2 20.3 20.3 20.4 20.5 20.9 21.2 21.1 21.2 21.4 21.7 21.8 22.1 22.4 22.7 23.1 23.6 20.0 20.0 20.0 20.0 20.1 20.1 20.1 20.1 20.1 20.2 20.2 20.3 20.4 20.4 21.3 21.9 21.5 21.4 21.5 21.7 22.0 22.3 22.7 23.1 23.7 24.7 20.0 20.0 20.0 20.0 20.1 20.1 20.1 20.1 20.1 20.2 20.2 20.3 20.4 20.4 21.6 22.4 21.8 21.6 21.7 21.9 22.2 22.6 23.1 23.6 24.7 27.4 20.0 20.0 20.0 20.0 20.1 20.1 20.1 20.1 20.1 20.2 20.2 20.3 20.4 20.4 21.8 22.7 22.0 21.8 21.8 22.1 22.4 22.9 23.5 24.3 25.6 29.1 20.0 20.0 20.0 20.0 20.0 20.1 20.1 20.1 20.1 20.2 20.2 20.3 20.4 20.4 21.9 22.9 22.1 21.9 22.0 22.2 22.6 23.2 23.9 24.9 26.1 28.9 20.0 20.0 20.0 20.0 20.0 20.1 20.1 20.1 20.1 20.2 20.2 20.3 20.4 20.4 22.0 23.0 22.2 21.8 22.0 22.2 22.6 23.2 24.0 25.3 26.8 29.0 20.0 20.0 20.0 20.0 20.1 20.1 20.1 20.1 20.1 20.2 20.3 20.4 20.5 20.6 21.5 22.1 21.7 21.7 21.8 22.1 22.4 23.0 23.7 24.8 26.6 28.5 20.0 20.0 20.0 20.1 20.1 20.1 20.1 20.2 20.2 20.3 20.3 20.4 20.6 20.7 20.9 21.1 21.3 21.4 21.6 21.9 22.2 22.6 23.2 23.9 25.4 26.8 20.0 20.0 20.0 20.1 20.1 20.1 20.2 20.2 20.3 20.3 20.4 20.5 20.6 20.7 20.8 20.9 21.1 21.3 21.5 21.7 22.0 22.4 22.8 23.3 24.1 23.8 20.0 20.0 20.0 20.0 20.0 20.0 20.0 20.0 20.0 20.0 20.0 20.0 20.0 20.0 20.0 20.0 20.0 20.0 20.0 20.0 20.0 20.0 20.0 20.0 20.0 20.0 20.0 20.0 20.0 20.0 20.0 20.0 20.0 20.0 20.0 20.0 20.0 20.0 20.0 20.0 20.0 20.0 20.0 20.0 20.0 20.0 20.0 20.0 20.0 20.1 20.1 20.1 20.0 20.0 20.1 20.1 20.0 20.0 20.0 20.0 20.0 20.0 20.1 20.1 20.1 20.1 20.1 20.1 20.1 20.1 20.1 20.1 20.1 20.1 20.1 20.1 20.1 20.1 20.0 20.0 20.1 20.1 20.1 20.1 20.1 20.1 20.1 20.1 20.1 20.1 20.1 20.1 20.1 20.1 20.1 20.1 20.1 20.1 20.1 20.2 20.2 20.2 20.2 20.2 20.0 20.0 20.1 20.1 20.1 20.1 20.1 20.1 20.1 20.2 20.2 20.1 20.1 20.1 20.1 20.1 20.2 20.2 20.2 20.2 20.2 20.2 20.2 20.2 20.3 20.3 20.0 20.0 20.0 20.1 20.1 20.2 20.2 20.2 20.2 20.2 20.2 20.2 20.2 20.2 20.2 20.2 20.2 20.2 20.3 20.3 20.3 20.3 20.3 20.3 20.3 20.4 20.0 20.0 20.0 20.1 20.1 20.1 20.2 20.2 20.2 20.2 20.3 20.3 20.2 20.2 20.3 20.3 20.3 20.3 20.3 20.4 20.4 20.4 20.4 20.4 20.4 20.5 20.0 20.0 20.0 20.1 20.1 20.1 20.2 20.2 20.2 20.2 20.3 20.3 20.3 20.3 20.3 20.3 20.3 20.4 20.4 20.4 20.5 20.5 20.5 20.5 20.6 20.6 20.0 20.0 20.0 20.1 20.1 20.1 20.2 20.2 20.2 20.3 20.3 20.3 20.3 20.4 20.4 20.4 20.4 20.5 20.5 20.5 20.6 20.6 20.6 20.6 20.7 20.7 20.0 20.0 20.0 20.1 20.1 20.1 20.2 20.2 20.2 20.3 20.3 20.3 20.4 20.4 20.4 20.5 20.5 20.5 20.6 20.7 20.7 20.7 20.7 20.8 20.8 20.9 20.0 20.0 20.0 20.1 20.1 20.1 20.2 20.2 20.2 20.3 20.3 20.4 20.4 20.5 20.5 20.5 20.6 20.6 20.7 20.8 20.8 20.8 20.9 20.9 21.0 21.1 20.0 20.0 20.0 20.1 20.1 20.1 20.2 20.2 20.3 20.3 20.3 20.4 20.4 20.5 20.5 20.6 20.6 20.7 20.8 20.9 20.9 21.0 21.0 21.1 21.2 21.2 20.0 20.0 20.0 20.1 20.1 20.1 20.2 20.2 20.3 20.3 20.4 20.4 20.5 20.5 20.6 20.6 20.7 20.8 20.9 21.0 21.0 21.1 21.2 21.3 21.4 21.5 20.0 20.0 20.0 20.1 20.1 20.1 20.2 20.2 20.2 20.3 20.4 20.4 20.5 20.5 20.6 20.7 20.8 20.8 21.0 21.1 21.2 21.3 21.4 21.5 21.6 21.8 20.0 20.0 20.0 20.1 20.1 20.1 20.1 20.2 20.2 20.3 20.3 20.4 20.5 20.6 20.6 20.7 20.8 20.9 21.1 21.3 21.4 21.5 21.6 21.8 21.9 22.1 20.0 20.0 20.0 20.0 20.1 20.1 20.1 20.2 20.2 20.3 20.3 20.4 20.5 20.6 20.7 20.8 20.9 21.1 21.6 21.9 21.8 21.7 21.9 22.0 22.2 22.5 20.0 20.0 20.0 20.0 20.1 20.1 20.1 20.2 20.2 20.3 20.3 20.4 20.5 20.6 20.8 20.9 21.0 21.2 21.8 22.2 22.0 22.0 22.2 22.4 22.6 23.0 20.0 20.0 20.0 20.0 20.1 20.1 20.1 20.1 20.2 20.2 20.2 20.4 20.6 20.6 21.0 21.4 21.3 21.4 21.6 21.9 22.1 22.2 22.4 22.7 23.1 23.7 20.0 20.0 20.0 20.0 20.1 20.1 20.1 20.1 20.1 20.1 20.1 20.4 20.7 20.7 21.5 22.2 21.8 21.7 21.8 22.0 22.2 22.5 22.8 23.2 23.8 25.4 20.0 20.0 20.0 20.0 20.1 20.1 20.1 20.1 20.1 20.1 20.1 20.4 20.7 20.8 22.0 22.9 22.3 22.0 22.0 22.2 22.4 22.8 23.2 23.9 25.3 30.4 20.0 20.0 20.0 20.0 20.1 20.1 20.1 20.1 20.1 20.1 20.1 20.4 20.7 20.8 22.3 23.5 22.8 22.4 22.2 22.3 22.6 23.1 23.7 24.6 26.3 33.1 20.0 20.0 20.0 20.0 20.0 20.1 20.1 20.1 20.1 20.1 20.1 20.4 20.7 20.8 22.6 24.0 23.2 22.6 22.4 22.5 22.8 23.3 24.0 25.2 26.7 31.5 20.0 20.0 20.0 20.0 20.0 20.1 20.1 20.1 20.1 20.1 20.1 20.4 20.7 20.8 22.7 24.2 23.3 22.6 22.4 22.5 22.9 23.4 24.1 25.5 27.5 32.1 20.0 20.0 20.0 20.0 20.1 20.1 20.1 20.1 20.2 20.2 20.3 20.5 20.8 20.9 22.1 23.1 22.7 22.3 22.2 22.4 22.7 23.2 23.8 25.0 27.7 32.5 20.0 20.0 20.0 20.1 20.1 20.1 20.1 20.2 20.2 20.3 20.4 20.6 20.7 20.9 21.2 21.5 21.7 21.8 21.9 22.1 22.4 22.8 23.3 24.0 26.1 29.2 20.0 20.0 20.0 20.1 20.1 20.1 20.2 20.2 20.3 20.3 20.4 20.5 20.6 20.7 20.9 21.0 21.2 21.4 21.6 21.8 22.1 22.5 22.9 23.4 24.3 24.4 20.0 20.0 20.0 20.0 20.0 20.0 20.0 20.0 20.0 20.0 20.0 20.0 20.0 20.0 20.0 20.0 20.0 20.0 20.0 20.0 20.0 20.0 20.0 20.0 20.0 20.0 20.0 20.0 20.0 20.0 20.0 20.0 20.0 20.0 20.0 20.0 20.0 20.0 20.0 20.0 20.0 20.0 20.0 20.0 20.0 20.0 20.0 20.1 20.1 20.1 20.1 20.1 20.0 20.0 20.1 20.1 20.1 20.1 20.1 20.1 20.1 20.1 20.1 20.1 20.1 20.1 20.1 20.1 20.1 20.1 20.1 20.1 20.1 20.1 20.1 20.1 20.1 20.1 20.0 20.0 20.1 20.1 20.1 20.1 20.1 20.1 20.1 20.1 20.1 20.1 20.1 20.1 20.1 20.1 20.1 20.1 20.2 20.2 20.2 20.2 20.2 20.2 20.2 20.2 20.0 20.0 20.1 20.1 20.1 20.1 20.1 20.1 20.1 20.1 20.2 20.2 20.2 20.2 20.2 20.2 20.2 20.2 20.2 20.2 20.2 20.2 20.3 20.3 20.3 20.3 20.0 20.0 20.1 20.1 20.1 20.2 20.2 20.2 20.2 20.2 20.2 20.2 20.2 20.2 20.2 20.3 20.3 20.3 20.3 20.3 20.3 20.3 20.4 20.4 20.4 20.4 20.0 20.0 20.1 20.1 20.1 20.2 20.2 20.2 20.2 20.3 20.3 20.3 20.3 20.3 20.3 20.3 20.4 20.4 20.4 20.4 20.4 20.4 20.4 20.5 20.5 20.5 20.0 20.0 20.1 20.1 20.1 20.2 20.2 20.2 20.3 20.3 20.3 20.3 20.4 20.4 20.4 20.4 20.4 20.5 20.5 20.5 20.5 20.5 20.5 20.6 20.6 20.7 20.0 20.0 20.1 20.1 20.1 20.2 20.2 20.2 20.3 20.3 20.3 20.4 20.4 20.4 20.5 20.5 20.5 20.6 20.6 20.6 20.6 20.6 20.7 20.7 20.7 20.8 20.0 20.0 20.1 20.1 20.1 20.2 20.2 20.2 20.3 20.3 20.4 20.4 20.4 20.5 20.5 20.6 20.6 20.6 20.7 20.7 20.8 20.8 20.8 20.8 20.9 20.9 20.0 20.0 20.0 20.1 20.1 20.2 20.2 20.3 20.3 20.3 20.4 20.4 20.5 20.5 20.6 20.6 20.7 20.7 20.8 20.9 20.9 20.9 21.0 21.0 21.1 21.1 20.0 20.0 20.0 20.1 20.1 20.2 20.2 20.3 20.3 20.4 20.4 20.5 20.5 20.6 20.6 20.7 20.7 20.8 20.9 21.0 21.0 21.1 21.1 21.2 21.3 21.3 20.0 20.0 20.0 20.1 20.1 20.2 20.2 20.3 20.3 20.4 20.4 20.5 20.5 20.6 20.7 20.7 20.8 20.9 21.0 21.1 21.2 21.2 21.3 21.4 21.5 21.6 20.0 20.0 20.0 20.1 20.1 20.1 20.2 20.3 20.3 20.4 20.4 20.5 20.6 20.6 20.7 20.8 20.9 21.0 21.1 21.2 21.3 21.4 21.5 21.6 21.7 21.9 20.0 20.0 20.0 20.1 20.1 20.1 20.2 20.2 20.3 20.4 20.4 20.5 20.6 20.7 20.8 20.9 21.0 21.1 21.3 21.4 21.6 21.6 21.7 21.9 22.0 22.2 20.0 20.0 20.0 20.1 20.1 20.1 20.2 20.2 20.3 20.3 20.4 20.5 20.6 20.7 20.8 20.9 21.1 21.2 21.6 21.8 21.9 21.9 22.0 22.1 22.3 22.6 20.0 20.0 20.0 20.1 20.1 20.1 20.2 20.2 20.3 20.4 20.4 20.5 20.6 20.7 20.9 21.0 21.2 21.4 21.7 22.1 22.1 22.2 22.3 22.4 22.7 23.1 20.0 20.0 20.0 20.1 20.1 20.1 20.1 20.2 20.3 20.3 20.4 20.6 20.8 20.9 21.0 21.2 21.3 21.5 21.8 22.0 22.2 22.4 22.6 22.8 23.3 24.0 20.0 20.0 20.0 20.0 20.1 20.1 20.1 20.2 20.2 20.3 20.3 20.7 21.0 21.1 21.4 21.6 21.7 21.8 21.9 22.2 22.4 22.6 22.9 23.9 25.1 26.8 20.0 20.0 20.0 20.0 20.1 20.1 20.1 20.2 20.2 20.3 20.3 20.7 21.1 21.3 21.6 22.1 22.4 22.4 22.4 22.4 22.6 23.0 23.9 26.0 29.8 38.3 20.0 20.0 20.0 20.0 20.1 20.1 20.1 20.2 20.2 20.3 20.4 20.7 21.1 21.3 21.9 22.7 23.1 23.1 22.8 22.7 22.9 23.3 25.0 27.1 32.7 51.8 20.0 20.0 20.0 20.0 20.1 20.1 20.1 20.2 20.2 20.3 20.4 20.7 21.1 21.3 22.0 23.0 23.4 23.3 23.0 22.9 23.1 23.5 24.9 26.5 31.3 52.2 20.0 20.0 20.0 20.0 20.1 20.1 20.1 20.2 20.2 20.3 20.4 20.7 21.1 21.3 22.2 23.2 23.4 23.2 23.0 23.0 23.2 23.7 24.5 25.9 31.4 52.3 20.0 20.0 20.0 20.0 20.1 20.1 20.1 20.2 20.3 20.4 20.5 20.8 21.1 21.3 21.9 22.8 23.0 22.8 22.7 22.7 23.0 23.4 24.2 25.6 33.5 52.7 20.0 20.0 20.0 20.1 20.1 20.1 20.2 20.2 20.3 20.4 20.6 20.7 20.9 21.1 21.3 21.7 22.0 22.1 22.1 22.3 22.6 23.0 23.6 24.9 31.2 42.4 20.0 20.0 20.1 20.1 20.1 20.2 20.2 20.3 20.4 20.4 20.5 20.6 20.7 20.9 21.0 21.2 21.4 21.6 21.8 22.0 22.3 22.7 23.1 24.1 26.4 28.9 20.0 20.0 20.0 20.0 20.0 20.0 20.0 20.0 20.0 20.0 20.0 20.0 20.0 20.0 20.0 20.0 20.0 20.0 20.0 20.0 20.0 20.0 20.0 20.0 20.0 20.0 20.0 20.0 20.0 20.0 20.0 20.0 20.0 20.0 20.0 20.0 20.0 20.0 20.0 20.0 20.0 20.0 20.0 20.0 20.1 20.1 20.1 20.1 20.1 20.1 20.1 20.1 20.0 20.0 20.1 20.1 20.1 20.1 20.1 20.1 20.1 20.1 20.1 20.1 20.1 20.1 20.1 20.1 20.1 20.1 20.1 20.1 20.1 20.1 20.1 20.1 20.1 20.2 20.0 20.0 20.1 20.1 20.1 20.1 20.1 20.1 20.1 20.1 20.1 20.1 20.1 20.1 20.1 20.1 20.2 20.2 20.2 20.2 20.2 20.2 20.2 20.2 20.2 20.2 20.0 20.0 20.1 20.1 20.2 20.2 20.2 20.2 20.2 20.2 20.2 20.2 20.2 20.2 20.2 20.2 20.2 20.2 20.2 20.3 20.3 20.3 20.3 20.3 20.3 20.3 20.0 20.0 20.1 20.1 20.2 20.2 20.2 20.2 20.2 20.2 20.2 20.3 20.3 20.3 20.3 20.3 20.3 20.3 20.3 20.3 20.3 20.4 20.4 20.4 20.4 20.5 20.0 20.0 20.1 20.1 20.2 20.2 20.2 20.3 20.3 20.3 20.3 20.3 20.3 20.4 20.4 20.4 20.4 20.4 20.4 20.4 20.4 20.5 20.5 20.5 20.5 20.6 20.0 20.0 20.1 20.1 20.2 20.2 20.2 20.3 20.3 20.3 20.4 20.4 20.4 20.4 20.5 20.5 20.5 20.5 20.5 20.5 20.5 20.6 20.6 20.6 20.6 20.7 20.0 20.0 20.1 20.1 20.2 20.2 20.3 20.3 20.3 20.4 20.4 20.4 20.5 20.5 20.5 20.6 20.6 20.6 20.7 20.7 20.7 20.7 20.7 20.7 20.8 20.8 20.0 20.0 20.1 20.1 20.2 20.2 20.3 20.3 20.4 20.4 20.4 20.5 20.5 20.6 20.6 20.7 20.7 20.7 20.8 20.8 20.8 20.8 20.9 20.9 20.9 21.0 20.0 20.0 20.1 20.1 20.2 20.2 20.3 20.3 20.4 20.4 20.5 20.5 20.6 20.6 20.7 20.7 20.8 20.8 20.9 20.9 21.0 21.0 21.0 21.1 21.1 21.2 20.0 20.0 20.1 20.1 20.1 20.2 20.3 20.3 20.4 20.4 20.5 20.5 20.6 20.7 20.7 20.8 20.9 20.9 21.0 21.1 21.1 21.2 21.2 21.3 21.3 21.4 20.0 20.0 20.1 20.1 20.1 20.2 20.3 20.3 20.4 20.5 20.5 20.6 20.6 20.7 20.8 20.9 20.9 21.0 21.1 21.2 21.3 21.3 21.4 21.5 21.6 21.6 20.0 20.0 20.1 20.1 20.1 20.2 20.2 20.3 20.4 20.5 20.5 20.6 20.7 20.8 20.8 20.9 21.0 21.1 21.3 21.4 21.5 21.5 21.6 21.7 21.8 21.9 20.0 20.0 20.1 20.1 20.1 20.2 20.2 20.3 20.4 20.4 20.5 20.6 20.7 20.8 20.9 21.0 21.1 21.3 21.4 21.6 21.7 21.8 21.9 22.0 22.1 22.3 20.0 20.0 20.1 20.1 20.1 20.2 20.2 20.3 20.4 20.4 20.5 20.6 20.7 20.8 20.9 21.1 21.2 21.4 21.6 21.8 22.0 22.0 22.1 22.2 22.4 22.7 20.0 20.0 20.1 20.1 20.1 20.2 20.2 20.3 20.4 20.5 20.6 20.6 20.7 20.9 21.0 21.1 21.3 21.5 21.7 22.0 22.1 22.3 22.4 22.5 22.8 23.2 20.0 20.0 20.1 20.1 20.1 20.2 20.2 20.3 20.4 20.5 20.6 20.7 20.8 20.9 21.0 21.2 21.4 21.6 21.8 22.0 22.3 22.5 22.6 22.9 23.8 24.8 20.0 20.0 20.1 20.1 20.1 20.2 20.2 20.3 20.3 20.5 20.6 20.8 21.0 21.1 21.2 21.3 21.5 21.7 21.9 22.2 22.4 22.7 23.2 25.5 28.0 29.0 20.0 20.0 20.0 20.1 20.1 20.1 20.2 20.3 20.3 20.5 20.6 20.8 21.0 21.2 21.4 21.7 22.1 22.4 22.4 22.5 22.7 23.1 25.7 30.9 37.0 45.7 20.0 20.0 20.0 20.1 20.1 20.1 20.2 20.3 20.3 20.5 20.6 20.8 21.0 21.2 21.5 22.1 22.9 23.2 23.1 22.9 23.1 23.6 27.7 33.4 49.5 84.3 20.0 20.0 20.0 20.1 20.1 20.1 20.2 20.2 20.3 20.5 20.6 20.8 21.0 21.2 21.5 22.3 23.0 23.3 23.4 23.3 23.4 23.9 26.6 30.4 47.9 97.5 20.0 20.0 20.0 20.1 20.1 20.1 20.2 20.2 20.3 20.5 20.7 20.8 21.0 21.2 21.5 22.2 22.7 23.1 23.3 23.4 23.5 23.9 25.5 28.0 43.3 93.8 20.0 20.0 20.0 20.1 20.1 20.1 20.2 20.3 20.4 20.5 20.7 20.8 21.0 21.2 21.5 22.1 22.5 22.6 22.8 23.0 23.2 23.6 24.9 27.8 46.4 90.2 20.0 20.0 20.1 20.1 20.2 20.2 20.3 20.3 20.4 20.5 20.7 20.8 21.0 21.1 21.3 21.6 21.9 22.0 22.3 22.5 22.8 23.1 24.0 26.8 39.1 63.9 20.0 20.0 20.1 20.1 20.2 20.3 20.3 20.4 20.5 20.6 20.6 20.8 20.9 21.0 21.1 21.3 21.5 21.7 22.0 22.2 22.5 22.8 23.3 25.0 29.1 36.0 20.0 20.0 20.0 20.0 20.0 20.0 20.0 20.0 20.0 20.0 20.0 20.0 20.0 20.0 20.0 20.0 20.0 20.0 20.0 20.0 20.0 20.0 20.0 20.0 20.0 20.0 20.0 20.0 20.1 20.0 20.0 20.0 20.0 20.0 20.0 20.0 20.0 20.0 20.0 20.0 20.0 20.0 20.0 20.1 20.1 20.1 20.1 20.1 20.1 20.1 20.1 20.1 20.0 20.1 20.1 20.1 20.1 20.1 20.1 20.1 20.1 20.1 20.1 20.1 20.1 20.1 20.1 20.1 20.1 20.1 20.1 20.1 20.1 20.1 20.1 20.1 20.1 20.2 20.0 20.0 20.1 20.1 20.1 20.1 20.1 20.1 20.1 20.1 20.1 20.1 20.1 20.1 20.1 20.1 20.2 20.2 20.2 20.2 20.2 20.2 20.2 20.2 20.2 20.3 20.0 20.0 20.1 20.1 20.2 20.2 20.2 20.2 20.2 20.2 20.2 20.2 20.2 20.2 20.2 20.2 20.2 20.2 20.3 20.3 20.3 20.3 20.3 20.3 20.3 20.4 20.0 20.0 20.1 20.1 20.2 20.2 20.2 20.3 20.3 20.3 20.3 20.3 20.3 20.3 20.3 20.3 20.3 20.3 20.3 20.4 20.4 20.4 20.4 20.4 20.4 20.5 20.0 20.0 20.1 20.1 20.2 20.2 20.3 20.3 20.3 20.3 20.4 20.4 20.4 20.4 20.4 20.4 20.4 20.4 20.5 20.5 20.5 20.5 20.5 20.5 20.5 20.6 20.0 20.0 20.1 20.1 20.2 20.3 20.3 20.3 20.4 20.4 20.4 20.4 20.5 20.5 20.5 20.5 20.6 20.6 20.6 20.6 20.6 20.6 20.6 20.6 20.6 20.7 20.0 20.0 20.1 20.1 20.2 20.3 20.3 20.4 20.4 20.4 20.5 20.5 20.5 20.6 20.6 20.6 20.7 20.7 20.7 20.7 20.7 20.7 20.7 20.7 20.8 20.8 20.0 20.0 20.1 20.1 20.2 20.3 20.3 20.4 20.4 20.5 20.5 20.6 20.6 20.7 20.7 20.7 20.8 20.8 20.9 20.9 20.9 20.9 20.9 20.9 20.9 21.0 20.0 20.0 20.1 20.1 20.2 20.3 20.3 20.4 20.4 20.5 20.5 20.6 20.7 20.7 20.8 20.8 20.9 20.9 21.0 21.0 21.1 21.1 21.1 21.1 21.2 21.2 20.0 20.0 20.1 20.1 20.2 20.2 20.3 20.4 20.5 20.5 20.6 20.6 20.7 20.8 20.8 20.9 21.0 21.0 21.1 21.2 21.2 21.3 21.3 21.4 21.4 21.5 20.0 20.0 20.1 20.1 20.2 20.2 20.3 20.4 20.5 20.5 20.6 20.7 20.7 20.8 20.9 21.0 21.1 21.1 21.2 21.3 21.4 21.4 21.5 21.6 21.7 21.8 20.0 20.0 20.1 20.1 20.2 20.2 20.3 20.4 20.5 20.5 20.6 20.7 20.8 20.9 21.0 21.0 21.1 21.2 21.4 21.5 21.5 21.6 21.7 21.8 21.9 22.0 20.0 20.0 20.1 20.1 20.2 20.2 20.3 20.4 20.5 20.5 20.6 20.7 20.8 20.9 21.0 21.1 21.2 21.4 21.5 21.6 21.7 21.8 21.9 22.1 22.2 22.3 20.0 20.0 20.1 20.1 20.2 20.2 20.3 20.4 20.5 20.5 20.6 20.7 20.8 20.9 21.0 21.2 21.3 21.4 21.6 21.8 21.9 22.0 22.1 22.3 22.5 22.8 20.0 20.0 20.1 20.1 20.2 20.2 20.3 20.4 20.5 20.6 20.6 20.7 20.8 21.0 21.1 21.2 21.4 21.5 21.7 21.9 22.1 22.2 22.4 22.7 23.2 23.6 20.0 20.0 20.1 20.1 20.2 20.3 20.3 20.4 20.5 20.6 20.7 20.8 20.9 21.0 21.1 21.3 21.4 21.6 21.8 22.0 22.2 22.4 22.8 23.4 24.8 25.8 20.0 20.0 20.1 20.1 20.2 20.3 20.3 20.4 20.5 20.5 20.7 20.8 21.0 21.1 21.2 21.4 21.6 21.7 21.9 22.1 22.4 22.7 23.6 26.8 31.4 31.8 20.0 20.0 20.1 20.1 20.2 20.2 20.3 20.4 20.4 20.5 20.7 20.8 21.0 21.2 21.4 21.6 22.0 22.2 22.3 22.4 22.7 23.2 26.4 34.2 41.8 44.6 20.0 20.0 20.1 20.1 20.1 20.2 20.3 20.4 20.4 20.5 20.6 20.8 20.9 21.2 21.5 21.9 22.6 23.0 23.0 23.0 23.3 23.9 28.8 38.7 60.9 91.7 20.0 20.0 20.1 20.1 20.1 20.2 20.3 20.3 20.4 20.5 20.6 20.8 20.9 21.1 21.4 22.0 22.6 23.1 23.4 23.5 23.7 24.5 28.9 36.7 63.6 118.9 20.0 20.0 20.1 20.1 20.1 20.2 20.2 20.3 20.4 20.5 20.6 20.8 21.0 21.1 21.4 21.8 22.2 22.7 23.3 23.6 23.8 25.1 29.9 35.8 58.8 116.7 20.0 20.0 20.1 20.1 20.1 20.2 20.3 20.4 20.4 20.5 20.7 20.9 21.0 21.2 21.4 21.7 22.0 22.4 22.9 23.3 23.5 24.6 28.3 36.5 63.6 115.3 20.0 20.0 20.1 20.1 20.2 20.3 20.4 20.4 20.5 20.6 20.7 20.9 21.0 21.2 21.4 21.6 21.8 22.0 22.4 22.8 23.1 23.4 24.8 31.7 51.3 83.8 20.0 20.0 20.1 20.2 20.2 20.3 20.4 20.5 20.6 20.7 20.8 20.9 21.0 21.1 21.3 21.4 21.6 21.8 22.1 22.4 22.7 23.0 23.5 25.8 33.2 43.4 20.0 20.0 20.0 20.0 20.0 20.0 20.0 20.0 20.0 20.0 20.0 20.0 20.0 20.0 20.0 20.0 20.0 20.0 20.0 20.0 20.0 20.0 20.0 20.0 20.0 20.0 20.0 20.1 20.1 20.1 20.0 20.0 20.0 20.0 20.0 20.0 20.0 20.0 20.0 20.1 20.1 20.1 20.1 20.1 20.1 20.1 20.1 20.1 20.1 20.1 20.1 20.1 20.0 20.1 20.1 20.1 20.1 20.1 20.1 20.1 20.1 20.1 20.1 20.1 20.1 20.1 20.1 20.1 20.1 20.1 20.1 20.1 20.1 20.1 20.1 20.2 20.2 20.2 20.0 20.1 20.1 20.2 20.2 20.2 20.2 20.2 20.2 20.2 20.2 20.2 20.2 20.2 20.2 20.2 20.2 20.2 20.2 20.2 20.2 20.2 20.2 20.2 20.3 20.3 20.0 20.0 20.1 20.2 20.2 20.2 20.2 20.2 20.2 20.2 20.2 20.3 20.3 20.3 20.3 20.3 20.3 20.3 20.3 20.3 20.3 20.3 20.3 20.4 20.4 20.4 20.0 20.0 20.1 20.2 20.2 20.3 20.3 20.3 20.3 20.3 20.3 20.3 20.4 20.4 20.4 20.4 20.4 20.4 20.4 20.4 20.4 20.4 20.4 20.5 20.5 20.5 20.0 20.0 20.1 20.2 20.2 20.3 20.3 20.3 20.4 20.4 20.4 20.4 20.5 20.5 20.5 20.5 20.5 20.5 20.5 20.5 20.5 20.5 20.5 20.6 20.6 20.6 20.0 20.0 20.1 20.2 20.2 20.3 20.3 20.4 20.4 20.4 20.5 20.5 20.5 20.6 20.6 20.6 20.6 20.6 20.6 20.6 20.6 20.7 20.6 20.7 20.7 20.7 20.0 20.0 20.1 20.2 20.2 20.3 20.4 20.4 20.5 20.5 20.5 20.6 20.6 20.6 20.7 20.7 20.7 20.8 20.8 20.8 20.8 20.8 20.8 20.8 20.8 20.9 20.0 20.0 20.1 20.1 20.2 20.3 20.4 20.4 20.5 20.5 20.6 20.6 20.7 20.7 20.8 20.8 20.9 20.9 20.9 20.9 21.0 21.0 21.0 21.0 21.0 21.0 20.0 20.0 20.1 20.1 20.2 20.3 20.4 20.4 20.5 20.6 20.6 20.7 20.7 20.8 20.8 20.9 20.9 21.0 21.1 21.1 21.1 21.2 21.2 21.2 21.3 21.3 20.0 20.0 20.1 20.1 20.2 20.3 20.4 20.4 20.5 20.6 20.7 20.7 20.8 20.8 20.9 21.0 21.0 21.1 21.2 21.2 21.3 21.3 21.4 21.5 21.5 21.6 20.0 20.0 20.1 20.1 20.2 20.3 20.4 20.4 20.5 20.6 20.7 20.7 20.8 20.9 20.9 21.0 21.1 21.2 21.3 21.4 21.4 21.5 21.6 21.7 21.8 21.9 20.0 20.0 20.1 20.1 20.2 20.3 20.3 20.4 20.5 20.6 20.7 20.8 20.8 20.9 21.0 21.1 21.2 21.3 21.4 21.5 21.6 21.7 21.8 21.9 22.0 22.2 20.0 20.0 20.1 20.1 20.2 20.3 20.3 20.4 20.5 20.6 20.7 20.8 20.8 20.9 21.0 21.1 21.2 21.3 21.5 21.6 21.7 21.8 22.0 22.1 22.3 22.4 20.0 20.0 20.1 20.1 20.2 20.3 20.4 20.4 20.5 20.6 20.7 20.8 20.9 21.0 21.1 21.2 21.3 21.4 21.6 21.7 21.8 22.0 22.2 22.3 22.6 22.9 20.0 20.0 20.1 20.2 20.2 20.3 20.4 20.5 20.6 20.6 20.7 20.8 20.9 21.0 21.1 21.2 21.4 21.5 21.6 21.8 22.0 22.2 22.4 22.9 23.7 24.1 20.0 20.0 20.1 20.2 20.2 20.3 20.4 20.5 20.6 20.7 20.8 20.9 21.0 21.1 21.2 21.3 21.4 21.6 21.8 21.9 22.1 22.4 23.1 24.4 26.0 26.8 20.0 20.0 20.1 20.2 20.3 20.3 20.4 20.5 20.6 20.7 20.8 20.9 21.0 21.2 21.3 21.4 21.6 21.7 21.9 22.1 22.3 22.7 24.2 27.8 33.6 34.1 20.0 20.0 20.1 20.2 20.2 20.3 20.4 20.5 20.6 20.6 20.8 20.9 21.0 21.2 21.4 21.6 21.8 22.0 22.1 22.4 22.7 23.2 25.9 34.2 44.1 44.7 20.0 20.0