<?xml version="1.0"?>
<VTKFile type="ImageData" version="1.0" byte_order="LittleEndian" header_type="UInt64">
<ImageData WholeExtent="25 50 0 25 1 1"
 Origin="15.0000 0.0000 0.0000" Spacing="0.6000 0.6000 0.6000">
<Piece Extent="25 50 0 25 1 1">
<PointData>
<DataArray Name="TEMPERATURE" NumberOfComponents="1" type="Float32" format="ascii">
28.1 28.5 26.3 25.3 26.9 26.1 27.0 27.7 26.3 23.9 22.0 22.1 22.2 22.3 22.6 23.9 26.5 28.6 29.4 30.1 31.6 34.3 35.9 33.8 27.1 22.6 29.7 30.1 27.8 26.2 26.5 25.7 27.3 28.7 28.0 26.3 24.4 23.1 22.6 23.1 24.4 27.0 30.1 32.3 33.1 33.8 35.1 37.4 39.1 37.8 30.9 25.7 31.2 31.8 29.9 26.9 25.7 25.4 29.3 32.6 30.1 27.0 25.3 23.8 23.3 24.8 27.5 30.9 34.1 36.0 37.2 38.5 39.9 41.3 42.4 41.7 34.7 28.9 29.9 30.2 29.1 27.5 29.9 31.0 34.3 38.8 33.5 26.3 23.6 23.4 24.0 25.7 28.0 30.3 32.7 35.0 37.5 40.1 41.8 42.5 42.7 41.7 35.3 29.9 27.9 27.3 27.5 30.2 38.8 41.8 41.9 45.0 37.2 26.7 23.3 23.3 23.9 25.0 26.5 28.2 29.9 32.1 35.3 38.5 40.8 42.1 42.6 41.8 36.4 31.6 27.2 27.2 30.3 35.6 44.6 48.5 48.4 50.4 41.7 28.4 23.3 23.0 23.3 24.0 25.5 27.3 28.4 29.6 31.7 34.5 37.3 39.8 41.0 40.5 36.1 32.2 31.5 30.6 36.3 43.6 49.1 49.8 49.5 52.3 48.3 35.7 25.9 23.2 23.1 23.6 25.0 26.7 27.6 28.3 29.8 31.7 33.7 36.2 37.7 37.2 33.7 30.8 50.0 40.2 44.1 52.5 54.1 50.2 47.6 50.0 51.6 46.8 35.9 27.4 24.6 23.9 24.6 26.1 27.0 27.5 28.7 29.7 30.3 31.9 33.3 33.1 30.4 28.2 69.7 54.0 56.8 64.3 59.9 52.0 47.1 46.7 48.7 52.2 48.7 39.2 32.1 26.8 25.0 25.5 25.9 26.2 27.0 27.1 26.9 27.9 29.6 30.2 28.2 26.2 76.3 66.5 69.7 74.7 66.9 55.7 48.0 43.2 40.8 44.9 49.0 45.4 38.6 30.5 25.8 25.2 24.8 24.5 24.7 24.5 24.5 25.5 27.5 28.8 27.1 25.3 76.7 72.8 71.3 73.1 69.3 58.9 48.8 40.3 33.9 33.8 37.6 38.7 36.4 30.5 26.1 25.2 24.2 23.4 23.3 23.3 23.6 24.7 26.5 27.8 26.7 25.3 70.4 65.6 61.6 63.7 65.8 59.4 48.3 38.5 31.4 28.3 29.4 32.2 32.9 29.1 25.7 24.8 23.6 22.7 22.8 23.2 23.6 24.4 25.7 27.3 27.1 26.1 59.4 55.3 54.4 58.2 62.5 57.1 44.7 36.0 30.9 27.9 27.7 30.3 31.6 28.6 25.7 24.6 23.3 22.6 22.9 23.5 23.9 24.2 25.3 27.4 27.8 27.0 54.1 56.5 57.9 60.3 65.3 57.8 41.4 33.2 30.2 28.3 27.6 29.2 30.1 28.1 26.3 25.4 23.8 22.9 23.3 24.2 24.3 24.2 25.0 27.2 27.9 27.3 55.6 64.3 65.6 67.6 76.1 69.7 47.9 34.1 29.6 28.5 27.8 28.4 28.6 27.4 26.5 26.2 24.8 23.6 24.1 25.1 25.2 24.6 24.9 26.2 26.8 26.5 56.8 67.8 68.8 71.7 83.7 86.5 67.4 45.1 33.2 29.4 28.2 27.9 27.4 26.5 26.2 26.4 25.6 24.5 25.0 26.5 26.9 26.1 25.1 25.0 25.1 25.0 57.8 67.9 65.8 66.4 77.0 91.0 87.1 66.6 45.5 33.6 30.1 28.2 26.7 25.6 25.5 26.0 25.8 25.4 26.2 28.0 29.2 28.4 25.9 24.0 23.5 23.3 58.2 70.6 65.4 61.5 66.5 83.9 94.3 81.7 58.7 41.0 34.1 30.5 27.6 25.8 25.3 25.5 25.6 25.9 27.1 29.4 31.0 30.0 26.3 23.4 22.5 22.4 63.1 76.9 70.3 63.6 64.2 79.2 93.5 91.9 76.9 53.6 39.6 32.1 28.5 26.6 25.7 25.3 25.3 26.0 27.8 30.7 32.8 31.3 27.0 23.4 22.0 21.8 74.4 82.1 74.2 67.2 70.5 84.3 94.2 107.2 118.9 92.9 54.6 33.8 27.8 26.6 26.0 25.3 25.0 25.8 28.3 32.3 34.6 32.6 27.8 23.7 21.6 21.0 89.3 87.7 79.1 71.7 78.2 92.1 102.0 122.8 151.4 123.2 62.9 34.4 27.2 26.3 26.2 25.6 25.3 26.2 29.4 33.5 34.7 31.8 27.3 23.9 21.6 20.7 92.8 85.9 75.8 71.8 79.1 93.4 107.5 124.1 145.4 116.4 58.7 34.5 27.5 26.4 26.3 26.1 26.1 27.4 30.3 33.2 33.5 30.9 27.6 25.1 22.5 21.0 79.2 75.2 61.5 62.6 73.8 88.5 100.4 102.5 111.1 92.3 53.3 36.0 28.9 26.8 26.3 25.9 26.2 27.3 29.3 31.2 31.8 30.5 28.8 27.1 23.7 21.5 65.7 65.0 51.3 57.6 68.8 76.0 84.0 79.8 72.3 59.7 44.2 35.4 29.5 27.0 26.4 25.6 25.6 26.4 27.7 28.9 29.8 29.8 29.5 27.9 23.9 21.7 50.5 50.5 47.5 62.3 70.3 64.9 63.0 61.3 52.2 41.5 37.0 32.9 29.1 27.4 26.7 25.6 25.3 25.7 26.4 27.4 28.8 29.4 29.1 26.5 22.8 21.3 33.2 36.8 43.0 63.0 69.7 58.1 49.0 45.5 41.7 36.8 34.0 31.3 29.1 27.7 26.5 25.4 25.0 25.1 25.5 26.6 27.9 28.0 26.7 24.1 21.8 21.1 
</DataArray>
</PointData>
</Piece>
</ImageData>
</VTKFile>
