<?xml version="1.0"?>
<VTKFile type="RectilinearGrid" version="1.0" byte_order="LittleEndian" header_type="UInt64">
<RectilinearGrid WholeExtent="25 50 0 25 0 15">
<Piece Extent="25 50 0 25 0 15">
<Coordinates>
<DataArray type="Float64" Name="Array X-Axis" format="ascii" RangeMin="15.0" RangeMax="30.0">
15.0 15.6 16.2 16.8 17.4 18.0 18.6 19.2 19.8 20.4 21.0 21.6 22.2 22.8 23.4 24.0 24.6 25.2 25.8 26.4 27.0 27.6 28.2 28.8 29.4 30.0 
</DataArray>
<DataArray type="Float64" Name="Array Y-Axis" format="ascii" RangeMin="0.0" RangeMax="15.0">
0.0 0.6 1.2 1.8 2.4 3.0 3.6 4.2 4.8 5.4 6.0 6.6 7.2 7.8 8.4 9.0 9.6 10.2 10.8 11.4 12.0 12.6 13.2 13.8 14.4 15.0 
</DataArray>
<DataArray type="Float64" Name="Array Z-Axis" format="ascii" RangeMin="0.0" RangeMax="9.0">
0.0 0.6 1.2 1.8 2.4 3.0 3.6 4.2 4.8 5.4 6.0 6.6 7.2 7.8 8.4 9.0 
</DataArray>
</Coordinates>
<PointData>
<DataArray Name="SOOT DENSITY" NumberOfComponents="1" type="UInt8" format="ascii">
0 0 0 0 0 0 0 0 0 0 0 0 0 0 0 0 0 0 0 0 0 0 0 0 0 0 0 0 0 0 0 0 0 0 0 0 0 0 0 0 0 0 0 0 0 0 0 0 0 0 0 0 0 0 0 0 0 0 0 0 0 0 0 0 0 0 0 0 0 0 0 0 0 0 0 0 0 0 0 0 0 0 0 0 0 0 0 0 0 0 0 0 0 0 0 0 0 0 0 0 0 0 0 0 0 0 0 0 0 0 0 0 0 0 0 0 0 0 0 0 0 0 0 0 0 0 0 0 0 0 0 0 0 0 0 0 0 0 0 0 0 0 0 0 0 0 0 0 0 0 0 0 0 0 0 0 0 0 0 0 0 0 0 0 0 0 0 0 0 0 0 0 0 0 0 0 0 0 0 0 0 0 0 0 0 0 0 0 0 0 0 0 0 0 0 0 0 0 0 0 0 0 0 0 0 0 0 0 0 0 0 0 0 0 0 0 0 0 0 0 0 0 0 0 0 0 0 0 0 0 0 0 0 0 0 0 0 0 0 0 0 0 0 0 0 0 0 0 0 0 0 0 0 0 0 0 0 0 0 0 0 0 0 0 0 0 0 0 0 0 0 0 0 0 0 0 0 0 0 0 0 0 0 0 0 0 0 0 0 0 0 0 0 0 0 0 0 0 0 0 0 0 0 0 0 0 0 0 0 0 0 0 0 0 0 0 0 0 0 0 0 0 0 0 0 0 0 0 0 0 0 0 0 0 0 0 0 0 0 0 0 0 0 0 0 0 0 0 0 0 0 0 0 0 0 0 0 0 0 0 0 0 0 0 0 0 0 0 0 0 0 0 0 0 0 0 0 0 0 0 0 0 0 0 0 0 0 0 0 0 0 0 0 0 0 0 0 0 0 0 0 0 0 0 0 0 0 0 0 0 0 0 0 0 0 0 0 0 0 0 0 0 0 0 0 0 0 0 0 0 0 0 0 0 0 0 0 0 0 0 0 0 0 0 0 0 0 0 1 1 0 0 0 0 0 0 0 0 0 0 0 0 0 0 0 0 0 0 0 0 0 0 1 3 6 5 1 0 0 0 0 0 0 0 0 0 0 0 0 0 0 0 0 0 0 0 1 3 8 41 63 40 10 0 0 0 0 0 0 0 0 0 0 0 0 0 0 0 0 0 0 0 1 5 10 39 59 40 14 1 0 0 0 0 0 0 0 0 0 0 0 0 0 0 0 0 0 0 1 6 5 0 0 10 11 1 0 0 0 0 0 0 0 0 0 0 0 0 0 0 0 0 0 0 1 6 5 0 0 10 11 1 0 0 0 0 0 0 0 0 0 0 0 0 0 0 0 0 0 0 1 6 7 5 5 8 6 0 0 0 0 0 0 0 0 0 0 0 0 0 0 0 0 0 0 0 0 3 5 5 5 3 1 0 0 0 0 0 0 0 0 0 0 0 0 0 0 0 0 0 0 0 0 0 0 1 0 0 0 0 0 0 0 0 0 0 0 0 0 0 0 0 0 0 0 0 0 0 0 0 0 0 0 0 0 0 0 0 0 0 0 0 0 0 0 0 0 0 0 0 0 0 0 0 0 0 0 0 0 0 0 0 0 0 0 0 0 0 0 0 0 0 0 0 0 0 0 0 0 0 0 0 0 0 0 0 0 0 0 0 0 0 0 0 0 0 0 0 0 0 0 0 0 0 0 0 0 0 0 0 0 0 0 0 0 0 0 0 0 0 0 0 0 0 0 0 0 0 0 0 0 0 0 0 0 0 0 0 0 0 0 0 0 0 0 0 0 0 0 0 0 0 0 0 0 0 0 0 0 0 0 0 0 0 0 0 0 0 0 0 0 0 0 0 0 0 0 0 0 0 0 0 0 0 0 0 0 0 0 0 0 0 0 0 0 0 0 0 0 0 0 0 0 0 0 0 0 0 0 0 0 0 0 0 0 0 0 0 0 0 0 0 0 0 0 0 0 0 0 0 0 0 0 0 0 0 0 0 0 0 0 0 0 0 0 0 0 0 0 0 0 0 0 0 0 0 0 0 0 0 0 0 0 0 0 0 0 0 0 0 0 0 0 0 0 0 0 0 0 0 0 0 0 0 0 0 0 0 0 0 0 0 0 0 0 0 0 0 0 0 0 0 0 0 0 0 0 0 0 0 0 0 0 0 0 0 0 0 0 0 0 0 0 0 0 0 0 0 0 0 0 0 0 0 0 0 0 0 0 0 0 0 0 0 0 0 0 0 0 0 0 0 0 0 0 0 0 0 0 0 0 0 0 0 0 0 0 0 0 0 0 0 0 0 0 0 0 0 0 0 0 0 0 0 0 0 0 0 0 0 0 0 0 0 0 0 0 0 0 0 0 0 0 0 0 0 0 0 0 0 0 0 0 0 0 0 0 0 0 0 0 0 0 0 0 0 0 0 0 0 0 0 0 0 0 0 0 0 0 0 0 0 0 0 0 0 0 2 5 5 3 0 0 0 0 0 0 0 0 0 0 0 0 0 0 0 0 0 0 0 0 0 1 4 9 11 7 1 0 0 0 0 0 0 0 0 0 0 0 0 0 0 0 0 0 0 1 3 5 11 17 18 10 2 0 0 0 0 0 0 0 0 0 0 0 0 0 0 0 0 0 1 13 39 59 98 107 62 21 2 0 0 0 0 0 0 0 0 0 0 0 0 0 0 0 0 0 2 16 61 141 195 179 94 30 3 0 0 0 0 0 0 0 0 0 0 0 0 0 0 0 0 0 1 6 52 177 231 224 146 37 6 0 0 0 0 0 0 0 0 0 0 0 0 0 0 0 0 0 1 8 56 169 222 225 175 44 5 0 0 0 0 0 0 0 0 0 0 0 0 0 0 0 0 0 1 11 53 115 136 147 116 26 2 0 0 0 0 0 0 0 0 0 0 0 0 0 0 0 0 0 0 5 27 36 30 29 17 3 0 0 0 0 0 0 0 0 0 0 0 0 0 0 0 0 0 0 0 0 3 5 4 3 1 0 0 0 0 0 0 0 0 0 0 0 0 0 0 0 0 0 0 0 0 0 0 0 0 0 0 0 0 0 0 0 0 0 0 0 0 0 0 0 0 0 0 0 0 0 0 0 0 0 0 0 0 0 0 0 0 0 0 0 0 0 0 0 0 0 0 0 0 0 0 0 0 0 0 0 0 0 0 0 0 0 0 0 0 0 0 0 0 0 0 0 0 0 0 0 0 0 0 0 0 0 0 0 0 0 0 0 0 0 0 0 0 0 0 0 0 0 0 0 0 0 0 0 0 0 0 0 0 0 0 0 0 0 0 0 0 0 0 0 0 0 0 0 0 0 0 0 0 0 0 0 0 0 0 0 0 0 0 0 0 0 0 0 0 0 0 0 0 0 0 0 0 0 0 0 0 0 0 0 0 0 0 0 0 0 0 0 0 0 0 0 0 0 0 0 0 0 0 0 0 0 0 0 0 0 0 0 0 0 0 0 0 0 0 0 0 0 0 0 0 0 0 0 0 0 0 0 0 0 0 0 0 0 0 0 0 0 0 0 0 0 0 0 0 0 0 0 0 0 0 0 0 0 0 0 0 0 0 0 0 0 0 0 0 0 0 0 0 0 0 0 0 0 0 0 0 0 0 0 0 0 0 0 0 0 0 0 0 0 0 0 0 0 0 0 0 0 0 0 0 0 0 0 0 0 0 0 0 0 0 0 0 0 0 0 0 0 0 0 0 0 0 0 0 0 0 0 0 0 0 0 0 0 0 0 0 0 0 0 0 0 0 0 0 0 0 0 0 0 0 0 0 0 0 0 0 0 0 0 0 0 0 0 0 0 0 0 0 0 0 0 0 0 0 0 0 0 0 0 0 0 0 0 0 0 0 0 0 0 0 0 0 0 0 0 0 0 0 0 0 0 0 0 0 0 0 0 0 0 0 0 0 0 2 7 6 1 0 0 0 0 0 0 0 0 0 0 0 0 0 0 0 0 0 0 0 1 1 1 11 41 44 15 1 0 0 0 0 0 0 0 0 0 0 0 0 0 0 0 0 0 0 1 4 7 26 58 72 50 15 0 0 0 0 0 0 0 0 0 0 0 0 0 0 0 0 0 1 3 15 31 51 61 70 62 22 1 0 0 0 0 0 0 0 0 0 0 0 0 0 0 0 0 2 22 99 149 166 150 108 67 16 1 0 0 0 0 0 0 0 0 0 0 0 0 0 0 0 0 4 38 163 232 245 237 196 106 18 2 0 0 0 0 0 0 0 0 0 0 0 0 0 0 0 1 6 33 164 246 253 252 238 138 22 2 0 0 0 0 0 0 0 0 0 0 0 0 0 0 0 2 7 33 153 242 252 252 242 145 23 1 0 0 0 0 0 0 0 0 0 0 0 0 0 0 0 1 5 29 133 206 214 222 208 102 13 0 0 0 0 0 0 0 0 0 0 0 0 0 0 0 0 0 3 14 70 97 81 96 82 24 2 0 0 0 0 0 0 0 0 0 0 0 0 0 0 0 0 0 2 3 9 14 11 10 7 1 0 0 0 0 0 0 0 0 0 0 0 0 0 0 0 0 0 0 0 0 0 0 0 0 0 0 0 0 0 0 0 0 0 0 0 0 0 0 0 0 0 0 0 0 0 0 0 0 0 0 0 0 0 0 0 0 0 0 0 0 0 0 0 0 0 0 0 0 0 0 0 0 0 0 0 0 0 0 0 0 0 0 0 0 0 0 0 0 0 0 0 0 0 0 0 0 0 0 0 0 0 0 0 0 0 0 0 0 0 0 0 0 0 0 0 0 0 0 0 0 0 0 0 0 0 0 0 0 0 0 0 0 0 0 0 0 0 0 0 0 0 0 0 0 0 0 0 0 0 0 0 0 0 0 0 0 0 0 0 0 0 0 0 0 0 0 0 0 0 0 0 0 0 0 0 0 0 0 0 0 0 0 0 0 0 0 0 0 0 0 0 0 0 0 0 0 0 0 0 0 0 0 0 0 0 0 0 0 0 0 0 0 0 0 0 0 0 0 0 0 0 0 0 0 0 0 0 0 0 0 0 0 0 0 0 0 0 0 0 0 0 0 0 0 0 0 0 0 0 0 0 0 0 0 0 0 0 0 0 0 0 0 0 0 0 0 0 0 0 0 0 0 0 0 0 0 0 0 0 0 0 0 0 0 0 0 0 0 0 0 0 0 0 0 0 0 0 0 0 0 0 0 0 0 0 0 0 0 0 0 0 0 0 0 0 0 0 0 0 0 0 0 0 0 0 0 0 0 0 0 0 0 0 0 0 0 0 0 0 0 0 0 0 0 0 0 0 0 0 0 0 0 0 0 0 0 0 0 0 0 0 0 0 0 0 0 0 0 0 0 0 0 0 0 0 0 0 0 0 0 0 0 0 0 0 0 0 0 0 0 0 0 0 0 0 0 0 0 0 0 0 0 0 0 0 0 0 0 1 1 1 0 3 9 7 1 0 0 0 0 0 0 0 0 0 0 0 0 0 0 0 0 0 0 1 4 4 6 30 72 67 19 1 0 0 0 0 0 0 0 0 0 0 0 0 0 0 0 0 1 2 8 10 15 0 128 130 87 28 1 0 0 0 0 0 0 0 0 0 0 0 0 0 0 0 1 6 15 25 47 0 145 153 126 44 2 0 0 0 0 0 0 0 0 0 0 0 0 0 0 0 1 9 41 112 174 0 206 198 152 39 4 0 0 0 0 0 0 0 0 0 0 0 0 0 0 0 4 16 101 215 246 0 250 245 204 62 10 0 0 0 0 0 0 0 0 0 0 0 0 0 0 0 8 28 134 238 253 0 254 252 225 78 12 0 0 0 0 0 0 0 0 0 0 0 0 0 0 0 15 39 134 232 251 0 253 251 229 110 9 0 0 0 0 0 0 0 0 0 0 0 0 0 0 0 11 31 110 200 228 0 236 235 197 87 5 0 0 0 0 0 0 0 0 0 0 0 0 0 0 0 2 12 53 109 120 104 137 139 66 8 0 0 0 0 0 0 0 0 0 0 0 0 0 0 0 0 1 3 10 19 21 17 20 16 3 0 0 0 0 0 0 0 0 0 0 0 0 0 0 0 0 0 0 0 0 0 0 0 0 0 0 0 0 0 0 0 0 0 0 0 0 0 0 0 0 0 0 0 0 0 0 0 0 0 0 0 0 0 0 0 0 0 0 0 0 0 0 0 0 0 0 0 0 0 0 0 0 0 0 0 0 0 0 0 0 0 0 0 0 0 0 0 0 0 0 0 0 0 0 0 0 0 0 0 0 0 0 0 0 0 0 0 0 0 0 0 0 0 0 0 0 0 0 0 0 0 0 0 0 0 0 0 0 0 0 0 0 0 0 0 0 0 0 0 0 0 0 0 0 0 0 0 0 0 0 0 0 0 0 0 0 0 0 0 0 0 0 0 0 0 0 0 0 0 0 0 0 0 0 0 0 0 0 0 0 0 0 0 0 0 0 0 0 0 0 0 0 0 0 0 0 0 0 0 0 0 0 0 0 0 0 0 0 0 0 0 0 0 0 0 0 0 0 0 0 0 0 0 0 0 0 0 0 0 0 0 0 0 0 0 0 0 0 0 0 0 0 0 0 0 0 0 0 0 0 0 0 0 0 0 0 0 0 0 0 0 0 0 0 0 0 0 0 0 0 0 0 0 0 0 0 0 0 0 0 0 0 0 0 0 0 0 0 0 0 0 0 0 0 0 0 0 0 0 0 0 0 0 0 0 0 0 0 0 0 0 0 0 0 0 0 0 0 0 0 0 0 0 0 0 0 0 0 0 0 0 0 0 0 0 0 0 0 0 0 0 0 0 0 0 0 0 0 0 0 0 0 0 0 0 0 0 0 0 0 0 0 0 0 0 0 0 0 0 0 0 0 0 0 0 0 0 0 0 0 0 0 0 0 0 0 0 0 0 0 0 0 0 0 0 0 0 0 0 0 0 0 0 0 0 0 0 0 2 3 1 1 2 3 3 0 0 0 0 0 0 0 0 0 0 0 0 0 0 0 0 0 0 2 6 8 5 9 38 61 42 9 1 0 0 0 0 0 0 0 0 0 0 0 0 0 0 0 0 6 10 15 13 0 0 0 126 82 21 1 0 0 0 0 0 0 0 0 0 0 0 0 0 0 0 8 18 28 25 0 0 0 180 148 47 4 0 0 0 0 0 0 0 0 0 0 0 0 0 0 0 10 29 62 95 0 0 0 223 187 57 9 0 0 0 0 0 0 0 0 0 0 0 0 0 0 0 16 58 168 230 0 0 0 250 225 86 20 1 0 0 0 0 0 0 0 0 0 0 0 0 0 0 29 112 223 251 0 0 0 253 239 106 21 1 0 0 0 0 0 0 0 0 0 0 0 0 0 0 53 147 228 249 0 0 0 253 244 150 13 0 0 0 0 0 0 0 0 0 0 0 0 0 0 0 50 132 202 228 0 0 0 241 225 124 7 0 0 0 0 0 0 0 0 0 0 0 0 0 0 0 21 66 118 136 119 108 133 143 86 10 0 0 0 0 0 0 0 0 0 0 0 0 0 0 0 0 5 11 22 35 35 26 24 16 4 0 0 0 0 0 0 0 0 0 0 0 0 0 0 0 0 0 0 0 0 0 0 0 0 0 0 0 0 0 0 0 0 0 0 0 0 0 0 0 0 0 0 0 0 0 0 0 0 0 0 0 0 0 0 0 0 0 0 0 0 0 0 0 0 0 0 0 0 0 0 0 0 0 0 0 0 0 0 0 0 0 0 0 0 0 0 0 0 0 0 0 0 0 0 0 0 0 0 0 0 0 0 0 0 0 0 0 0 0 0 0 0 0 0 0 0 0 0 0 0 0 0 0 0 0 0 0 0 0 0 0 0 0 0 0 0 0 0 0 0 0 0 0 0 0 0 0 0 0 0 0 0 0 0 0 0 0 0 0 0 0 0 0 0 0 0 0 0 0 0 0 0 0 0 0 0 0 0 0 0 0 0 0 0 0 0 0 0 0 0 0 0 0 0 0 0 0 0 0 0 0 0 0 0 0 0 0 0 0 0 0 0 0 0 0 0 0 0 0 0 0 0 0 0 0 0 0 0 0 0 0 0 0 0 0 0 0 0 0 0 0 0 0 0 0 0 0 0 0 0 0 0 0 0 0 0 0 0 0 0 0 0 0 0 0 0 0 0 0 0 0 0 0 0 0 0 0 0 0 0 0 0 0 0 0 0 0 0 0 0 0 0 0 0 0 0 0 0 0 0 0 0 0 0 0 0 0 0 0 0 0 0 0 0 0 0 0 0 0 0 0 0 0 0 0 0 0 0 0 0 0 0 0 0 0 0 0 0 0 0 0 0 0 0 0 0 0 0 0 0 0 0 0 0 0 0 0 0 0 0 0 0 0 0 0 0 0 0 0 0 0 0 0 0 0 0 0 0 0 0 0 0 0 0 0 0 0 0 0 0 0 0 0 0 0 0 0 0 0 0 0 0 0 0 0 0 0 1 3 3 1 0 1 1 1 0 0 0 0 0 0 0 0 0 0 0 0 0 0 0 0 0 0 10 12 10 6 8 25 29 14 4 1 0 0 0 0 0 0 0 0 0 0 0 0 0 0 0 0 25 26 21 0 0 0 77 75 54 15 1 0 0 0 0 0 0 0 0 0 0 0 0 0 0 0 30 41 36 0 0 0 136 158 142 57 10 0 0 0 0 0 0 0 0 0 0 0 0 0 0 0 31 57 70 0 0 0 212 219 194 86 24 1 0 0 0 0 0 0 0 0 0 0 0 0 0 0 81 139 199 0 0 0 252 250 222 99 35 3 0 0 0 0 0 0 0 0 0 0 0 0 0 0 145 212 245 0 0 0 254 253 234 96 28 3 0 0 0 0 0 0 0 0 0 0 0 0 0 0 169 230 248 0 0 0 253 252 240 112 10 1 0 0 0 0 0 0 0 0 0 0 0 0 0 0 150 213 231 0 0 0 226 237 220 86 3 0 0 0 0 0 0 0 0 0 0 0 0 0 0 0 92 143 157 147 141 137 120 124 88 7 0 0 0 0 0 0 0 0 0 0 0 0 0 0 0 0 31 47 44 51 63 51 24 9 3 0 0 0 0 0 0 0 0 0 0 0 0 0 0 0 0 0 0 0 0 0 0 0 0 0 0 0 0 0 0 0 0 0 0 0 0 0 0 0 0 0 0 0 0 0 0 0 0 0 0 0 0 0 0 0 0 0 0 0 0 0 0 0 0 0 0 0 0 0 0 0 0 0 0 0 0 0 0 0 0 0 0 0 0 0 0 0 0 0 0 0 0 0 0 0 0 0 0 0 0 0 0 0 0 0 0 0 0 0 0 0 0 0 0 0 0 0 0 0 0 0 0 0 0 0 0 0 0 0 0 0 0 0 0 0 0 0 0 0 0 0 0 0 0 0 0 0 0 0 0 0 0 0 0 0 0 0 0 0 0 0 0 0 0 0 0 0 0 0 0 0 0 0 0 0 0 0 0 0 0 0 0 0 0 0 0 0 0 0 0 0 0 0 0 0 0 0 0 0 0 0 0 0 0 0 0 0 0 0 0 0 0 0 0 0 0 0 0 0 0 0 0 0 0 0 0 0 0 0 0 0 0 0 0 0 0 0 0 0 0 0 0 0 0 0 0 0 0 0 0 0 0 0 0 0 0 0 0 0 0 0 0 0 0 0 0 0 0 0 0 0 0 0 0 0 0 0 0 0 0 0 0 0 0 0 0 0 0 0 0 0 0 0 0 0 0 0 0 0 0 0 0 0 0 0 0 0 0 0 0 0 0 0 0 0 0 0 0 0 0 0 0 0 0 0 0 0 0 0 0 0 0 0 0 0 0 0 0 0 0 0 0 0 0 0 0 0 0 0 0 0 0 0 0 0 0 0 0 0 0 0 0 0 0 0 0 0 0 0 0 0 0 0 0 0 0 0 0 0 0 0 0 0 0 0 0 0 0 0 0 0 0 0 0 0 0 0 0 0 0 0 0 0 0 0 0 0 2 4 3 1 0 0 0 0 0 0 0 0 0 0 0 0 0 0 0 0 0 0 0 0 0 0 19 19 11 6 4 8 7 5 4 1 0 0 0 0 0 0 0 0 0 0 0 0 0 0 0 0 43 42 0 0 0 47 36 42 42 20 2 0 0 0 0 0 0 0 0 0 0 0 0 0 0 0 50 58 0 0 0 162 129 139 138 86 27 1 0 0 0 0 0 0 0 0 0 0 0 0 0 0 52 75 0 0 0 232 214 217 201 126 52 3 0 0 0 0 0 0 0 0 0 0 0 0 0 0 138 182 0 0 0 253 252 248 221 122 52 5 0 0 0 0 0 0 0 0 0 0 0 0 0 0 214 240 0 0 0 254 254 252 222 88 33 5 0 0 0 0 0 0 0 0 0 0 0 0 0 0 232 247 0 0 0 250 249 249 225 59 8 2 0 0 0 0 0 0 0 0 0 0 0 0 0 0 226 238 0 0 0 206 186 216 197 39 2 0 0 0 0 0 0 0 0 0 0 0 0 0 0 0 193 203 186 164 163 157 106 87 65 6 0 0 0 0 0 0 0 0 0 0 0 0 0 0 0 0 104 115 98 85 79 65 29 10 3 0 0 0 0 0 0 0 0 0 0 0 0 0 0 0 0 0 0 0 0 0 0 0 0 0 0 0 0 0 0 0 0 0 0 0 0 0 0 0 0 0 0 0 0 0 0 0 0 0 0 0 0 0 0 0 0 0 0 0 0 0 0 0 0 0 0 0 0 0 0 0 0 0 0 0 0 0 0 0 0 0 0 0 0 0 0 0 0 0 0 0 0 0 0 0 0 0 0 0 0 0 0 0 0 0 0 0 0 0 0 0 0 0 0 0 0 0 0 0 0 0 0 0 0 0 0 0 0 0 0 0 0 0 0 0 0 0 0 0 0 0 0 0 0 0 0 0 0 0 0 0 0 0 0 0 0 0 0 0 0 0 0 0 0 0 0 0 0 0 0 0 0 0 0 0 0 0 0 0 0 0 0 0 0 0 0 0 0 0 0 0 0 0 0 0 0 0 0 0 0 0 0 0 0 0 0 0 0 0 0 0 0 0 0 0 0 0 0 0 0 0 0 0 0 0 0 0 0 0 0 0 0 0 0 0 0 0 0 0 0 0 0 0 0 0 0 0 0 0 0 0 0 0 0 0 0 0 0 0 0 0 0 0 0 0 0 0 0 0 0 0 0 0 0 0 0 0 0 0 0 0 0 0 0 0 0 0 0 0 0 0 0 0 0 0 0 0 0 0 0 0 0 0 0 0 0 0 0 0 0 0 0 0 0 0 0 0 0 0 0 0 0 0 0 0 0 0 0 0 0 0 0 0 0 0 0 0 0 0 0 0 0 0 0 0 0 0 0 0 0 0 0 0 0 0 0 0 0 0 0 0 0 0 0 0 0 0 0 0 0 0 0 0 0 0 0 0 0 0 0 0 0 0 0 0 0 0 0 0 0 0 0 0 0 0 0 0 0 0 0 0 0 0 0 0 0 0 2 4 2 1 0 0 0 0 0 0 0 0 0 0 0 0 0 0 0 0 0 0 0 0 0 0 16 17 11 5 2 2 4 11 10 2 0 0 0 0 0 0 0 0 0 0 0 0 0 0 0 0 40 0 0 0 58 46 54 78 76 44 5 0 0 0 0 0 0 0 0 0 0 0 0 0 0 0 54 0 0 0 218 197 163 168 165 134 55 2 0 0 0 0 0 0 0 0 0 0 0 0 0 0 62 0 0 0 250 245 229 225 212 173 95 5 0 0 0 0 0 0 0 0 0 0 0 0 0 0 135 0 0 0 253 253 251 246 222 160 88 8 0 0 0 0 0 0 0 0 0 0 0 0 0 0 215 0 0 0 252 253 252 245 200 111 52 7 0 0 0 0 0 0 0 0 0 0 0 0 0 0 239 0 0 0 228 228 227 225 183 56 15 3 0 0 0 0 0 0 0 0 0 0 0 0 0 0 234 0 0 0 194 172 120 155 143 29 4 0 0 0 0 0 0 0 0 0 0 0 0 0 0 0 201 200 182 166 159 141 79 41 28 8 1 0 0 0 0 0 0 0 0 0 0 0 0 0 0 0 116 125 105 81 57 45 24 11 3 1 0 0 0 0 0 0 0 0 0 0 0 0 0 0 0 0 0 0 0 0 0 0 0 0 0 0 0 0 0 0 0 0 0 0 0 0 0 0 0 0 0 0 0 0 0 0 0 0 0 0 0 0 0 0 0 0 0 0 0 0 0 0 0 0 0 0 0 0 0 0 0 0 0 0 0 0 0 0 0 0 0 0 0 0 0 0 0 0 0 0 0 0 0 0 0 0 0 0 0 0 0 0 0 0 0 0 0 0 0 0 0 0 0 0 0 0 0 0 0 0 0 0 0 0 0 0 0 0 0 0 0 0 0 0 0 0 0 0 0 0 0 0 0 0 0 0 0 0 0 0 0 0 0 0 0 0 0 0 0 0 0 0 0 0 0 0 0 0 0 0 0 0 0 0 0 0 0 0 0 0 0 0 0 0 0 0 0 0 0 0 0 0 0 0 0 0 0 0 0 0 0 0 0 0 0 0 0 0 0 0 0 0 0 0 0 0 0 0 0 0 0 0 0 0 0 0 0 0 0 0 0 0 0 0 0 0 0 0 0 0 0 0 0 0 0 0 0 0 0 0 0 0 0 0 0 0 0 0 0 0 0 0 0 0 0 0 0 0 0 0 0 0 0 0 0 0 0 0 0 0 0 0 0 0 0 0 0 0 0 0 0 0 0 0 0 0 0 0 0 0 0 0 0 0 1 1 0 0 0 0 0 0 0 0 0 0 0 0 0 0 0 0 0 0 0 0 0 0 0 1 1 1 0 0 0 0 0 0 0 0 0 0 0 0 0 0 0 0 0 0 0 0 0 0 0 1 1 1 0 0 0 0 0 0 0 0 0 0 0 0 0 0 0 0 0 0 0 0 0 0 0 1 1 1 0 0 0 0 0 0 0 0 0 0 0 0 0 0 0 0 0 0 0 0 0 0 1 2 2 1 0 0 0 1 1 0 0 0 0 0 0 0 0 0 0 0 0 0 0 0 0 0 7 8 9 6 2 1 11 40 36 5 0 0 0 0 0 0 0 0 0 0 0 0 0 0 0 0 25 22 0 30 35 32 80 147 150 83 9 0 0 0 0 0 0 0 0 0 0 0 0 0 0 0 45 72 0 198 210 193 176 207 214 184 78 3 0 0 0 0 0 0 0 0 0 0 0 0 0 0 73 156 0 248 250 247 237 235 232 214 133 8 0 0 0 0 0 0 0 0 0 0 0 0 0 0 127 193 0 251 252 252 251 245 231 202 128 12 1 0 0 0 0 0 0 0 0 0 0 0 0 0 200 223 0 238 240 246 245 232 202 155 77 10 1 0 0 0 0 0 0 0 0 0 0 0 0 0 230 232 0 189 176 161 155 155 141 85 21 4 0 0 0 0 0 0 0 0 0 0 0 0 0 0 210 198 0 185 176 132 64 74 82 39 6 1 0 0 0 0 0 0 0 0 0 0 0 0 0 0 131 127 132 144 136 101 42 22 16 9 2 0 0 0 0 0 0 0 0 0 0 0 0 0 0 0 56 66 49 35 27 18 12 8 3 1 0 0 0 0 0 0 0 0 0 0 0 0 0 0 0 0 0 0 0 0 0 0 0 0 0 0 0 0 0 0 0 0 0 0 0 0 0 0 0 0 0 0 0 0 0 0 0 0 0 0 0 0 0 0 0 0 0 0 0 0 0 0 0 0 0 0 0 0 0 0 0 0 0 0 0 0 0 0 0 0 0 0 0 0 0 0 0 0 0 0 0 0 0 0 0 0 0 0 0 0 0 0 0 0 0 0 0 0 0 0 0 0 0 0 0 0 0 0 0 0 0 0 0 0 0 0 0 0 0 0 0 0 0 0 0 0 0 0 0 0 0 0 0 0 0 0 0 0 0 0 0 0 0 0 0 0 0 0 0 0 0 0 0 0 0 0 0 0 0 0 0 0 0 0 0 0 0 0 0 0 0 0 0 0 0 0 0 0 0 0 0 0 0 0 0 0 0 0 0 0 0 0 1 1 0 1 1 0 0 0 0 0 0 0 0 0 0 0 0 0 0 0 0 0 0 0 0 1 1 1 0 1 1 0 0 0 0 0 0 0 0 0 0 0 0 0 0 0 0 0 3 3 5 6 2 1 1 1 1 0 0 0 0 0 0 0 0 0 0 0 0 0 0 0 0 0 11 11 15 16 5 1 1 0 0 0 0 0 0 0 0 0 0 0 0 0 0 0 0 0 0 0 15 18 22 19 6 1 1 0 0 0 0 0 0 0 0 0 0 0 0 0 0 0 0 0 0 0 12 16 20 14 5 1 1 0 0 0 0 0 0 0 0 0 0 0 0 0 0 0 0 0 0 0 7 11 14 10 4 2 1 1 0 0 0 0 0 0 0 0 0 0 0 0 0 0 0 0 0 0 3 7 11 9 4 2 1 1 0 0 0 0 0 0 0 0 0 0 0 0 0 0 0 0 0 0 2 7 12 10 5 3 2 1 1 0 0 0 0 0 0 0 0 0 0 0 0 0 0 0 0 0 8 10 15 12 6 4 12 50 46 5 0 0 0 0 0 0 0 0 0 0 0 0 0 0 0 0 20 19 23 19 17 17 75 174 182 93 9 0 0 0 0 0 0 0 0 0 0 0 0 0 0 0 41 64 110 127 152 146 170 227 236 204 87 4 0 0 0 0 0 0 0 0 0 0 0 0 0 0 92 146 204 222 236 239 237 241 244 236 170 28 1 0 0 0 0 0 0 0 0 0 0 0 0 0 163 195 227 237 242 247 247 245 242 233 176 39 1 0 0 0 0 0 0 0 0 0 0 0 0 0 213 224 227 221 214 217 222 223 222 199 117 25 1 0 0 0 0 0 0 0 0 0 0 0 0 0 225 225 212 184 165 126 100 128 165 140 56 12 1 0 0 0 0 0 0 0 0 0 0 0 0 0 191 173 166 166 160 116 58 58 93 86 32 4 0 0 0 0 0 0 0 0 0 0 0 0 0 0 90 71 92 121 114 78 31 24 34 32 13 1 0 0 0 0 0 0 0 0 0 0 0 0 0 0 23 26 24 31 34 22 9 9 10 7 3 0 0 0 0 0 0 0 0 0 0 0 0 0 0 0 0 0 0 0 0 0 0 0 0 0 0 0 0 0 0 0 0 0 0 0 0 0 0 0 0 0 2 2 1 1 1 1 1 1 1 0 0 0 1 1 1 1 1 1 1 1 2 3 2 1 0 0 4 3 2 1 1 2 2 1 1 1 1 1 1 1 2 2 2 2 2 3 5 6 4 2 0 0 4 4 3 2 2 2 2 2 1 1 1 1 1 1 1 2 2 2 4 6 8 7 5 2 0 0 4 4 3 3 3 3 4 3 1 1 1 1 1 1 1 2 2 3 6 8 8 7 4 2 1 0 3 3 3 4 4 5 7 9 6 2 1 1 1 1 1 2 2 4 6 7 6 5 3 2 1 0 3 3 4 6 7 7 11 21 17 4 1 1 1 1 1 2 2 4 4 5 4 3 2 2 1 0 10 4 7 10 10 9 14 31 35 17 4 1 1 1 1 2 2 3 3 3 2 2 2 1 1 0 29 9 19 23 15 10 14 32 41 28 11 2 1 1 1 1 2 2 2 2 1 1 1 1 0 0 56 36 55 65 36 14 12 21 26 20 10 3 1 1 1 1 1 1 1 1 1 1 1 1 0 0 82 76 88 94 58 22 9 9 9 7 4 2 1 1 1 1 1 1 1 1 1 1 1 0 0 0 88 92 91 82 56 27 9 5 3 2 1 1 1 1 1 1 0 0 0 0 0 0 0 0 0 0 70 74 69 53 38 22 10 6 4 2 1 1 1 0 0 0 0 0 0 0 0 0 0 0 0 0 43 47 47 41 30 17 9 8 6 2 1 1 0 0 0 0 0 0 0 0 0 0 0 0 0 0 23 35 52 56 49 31 12 9 6 2 1 1 0 0 0 0 0 0 0 0 0 0 1 1 0 0 15 36 65 72 73 60 24 10 6 3 1 1 1 0 0 0 0 0 0 0 0 1 1 1 0 0 27 40 55 56 66 75 54 43 32 7 3 1 1 0 0 0 0 0 0 0 1 1 0 0 0 0 41 47 45 35 41 68 94 156 156 63 9 2 1 1 0 0 0 0 1 1 1 0 0 0 0 0 67 88 86 57 69 102 168 227 232 182 66 6 2 1 1 0 0 1 1 1 1 0 0 0 0 0 126 151 153 133 171 212 230 243 247 239 176 34 2 1 1 0 0 1 1 1 1 1 0 0 0 0 192 199 201 191 204 227 236 242 247 245 200 47 3 1 1 1 0 1 1 1 1 1 1 1 0 0 220 219 214 199 188 185 202 224 237 228 151 30 3 1 1 1 1 1 1 2 2 2 1 1 0 0 217 207 188 173 173 152 137 167 206 186 85 17 2 1 1 0 0 1 1 1 1 1 1 1 0 0 178 147 125 135 151 134 101 101 137 121 49 9 2 1 1 0 0 0 1 1 1 1 1 0 0 0 91 67 68 96 105 91 68 65 66 49 21 5 2 2 1 1 0 0 0 0 0 0 0 0 0 0 28 33 39 54 59 44 36 40 33 19 10 4 2 2 1 1 0 0 0 0 0 0 0 0 0 0 5 4 3 6 8 6 8 8 5 2 1 1 1 1 3 5 7 6 5 10 19 26 26 16 5 0 17 15 12 14 15 14 18 19 15 9 6 3 4 7 12 19 26 27 26 29 37 46 46 35 15 3 26 28 24 16 13 15 22 25 20 13 9 6 8 13 20 27 35 39 43 50 60 67 65 52 25 6 24 31 28 17 14 18 28 33 22 12 8 7 9 14 19 25 32 39 49 61 69 71 65 53 28 9 19 24 23 22 32 37 45 51 31 11 7 7 8 10 14 20 28 38 51 63 69 69 64 56 34 15 16 18 21 32 50 55 65 79 53 15 7 6 7 9 12 16 23 33 44 54 60 62 60 54 36 15 22 19 30 50 63 60 73 99 84 35 10 6 7 8 11 14 20 28 36 43 47 51 51 46 31 10 71 35 50 74 75 60 68 103 112 81 38 12 8 9 10 13 18 23 29 33 34 36 36 32 22 7 124 71 93 114 92 61 60 92 115 110 79 39 18 11 10 12 14 17 21 22 21 21 22 22 16 4 151 120 144 159 123 72 53 68 84 90 80 51 26 14 10 11 11 12 13 12 11 13 15 16 11 2 168 160 165 170 143 91 54 42 40 44 44 32 20 13 10 10 9 8 7 7 8 10 12 12 7 1 165 160 149 143 131 100 58 29 18 17 17 15 14 11 9 8 6 5 5 6 7 8 10 10 6 1 136 128 115 105 103 85 51 27 16 11 10 12 13 11 8 6 5 4 5 6 7 8 10 12 8 2 98 102 107 102 99 75 40 27 19 12 10 11 13 10 7 6 5 4 5 6 7 8 11 15 12 3 80 106 130 138 145 115 51 30 21 14 12 12 13 10 8 7 5 5 5 7 8 10 14 17 13 4 73 112 142 158 177 166 103 47 31 20 15 14 12 10 8 7 6 5 7 9 10 12 14 15 11 3 82 109 122 132 162 183 160 106 68 41 27 18 12 8 7 8 7 7 8 10 12 11 11 10 6 2 96 119 110 97 120 170 183 170 138 80 47 28 16 9 7 8 8 9 10 12 13 10 7 5 3 1 125 152 136 102 103 159 202 224 219 170 92 36 16 10 8 7 7 10 13 18 19 13 7 4 2 1 167 182 162 123 135 192 225 241 247 238 183 54 12 9 8 7 6 10 16 25 29 22 11 6 2 1 204 204 189 162 171 206 227 242 249 247 208 62 10 8 8 7 7 12 20 30 33 26 16 10 4 1 217 209 196 181 182 195 213 232 244 239 181 58 12 9 9 8 10 14 22 30 31 25 20 15 7 1 203 185 159 160 178 187 190 205 228 216 141 61 17 10 9 8 10 13 18 23 26 24 21 17 8 1 161 135 102 126 158 164 159 161 176 157 99 51 20 11 10 8 8 10 13 16 19 19 18 15 7 1 98 84 82 120 140 130 122 121 104 72 53 36 19 13 12 9 7 8 10 12 14 14 12 9 4 1 45 57 78 116 120 91 80 78 63 42 34 27 19 15 12 9 7 7 8 9 11 10 7 5 2 1 52 68 47 25 41 47 40 35 30 19 10 10 11 12 13 20 47 71 76 82 91 105 113 102 60 18 80 81 66 54 55 48 60 71 67 55 40 30 26 30 42 62 84 97 101 104 110 121 129 123 85 50 89 92 81 61 49 46 72 92 80 61 47 35 32 45 66 88 106 116 121 127 133 138 143 140 108 74 79 83 75 63 73 79 98 119 95 53 33 32 39 52 69 84 98 110 122 134 140 143 144 140 112 81 65 62 63 77 116 128 130 142 112 54 29 31 37 46 57 70 82 95 112 127 136 142 144 141 118 93 59 60 79 105 139 151 152 159 130 64 28 27 31 37 49 63 72 80 93 108 122 133 139 137 118 95 83 78 110 138 154 155 155 164 153 104 47 27 28 33 44 58 66 72 81 93 104 118 125 123 107 86 159 124 141 166 168 157 149 158 163 148 104 57 38 34 40 53 61 66 74 81 85 95 104 104 90 72 203 171 179 194 183 163 148 148 155 164 154 119 84 54 42 48 52 56 62 63 62 70 82 88 76 59 213 198 204 210 197 173 150 135 127 142 154 142 115 76 48 45 42 41 43 43 43 53 69 79 68 53 213 208 206 208 201 180 152 123 94 93 111 115 104 75 49 44 37 30 30 32 36 47 62 72 64 52 205 197 189 192 195 182 152 114 77 59 67 82 87 66 45 40 30 24 25 30 36 45 56 68 66 56 186 176 173 180 187 176 140 102 73 55 54 71 79 63 45 37 27 21 26 34 39 43 52 68 70 62 174 180 181 184 191 175 127 88 68 57 53 64 70 59 47 41 30 24 30 39 41 42 50 66 71 63 179 195 195 196 206 195 143 89 64 57 54 58 61 54 48 46 37 29 36 46 47 44 47 58 62 57 180 198 195 197 213 215 187 130 81 61 54 54 52 47 45 48 43 37 43 55 58 52 46 46 48 44 180 195 182 178 199 217 216 188 131 79 61 51 43 38 40 45 45 43 51 64 70 65 49 36 33 25 180 197 174 156 172 208 226 218 175 115 79 58 43 36 37 40 43 46 56 70 78 72 49 29 23 17 185 201 178 158 163 203 230 232 218 178 117 66 44 37 37 37 39 46 59 77 87 77 52 28 19 14 197 203 182 167 177 211 233 242 245 236 182 79 38 36 37 34 35 43 62 85 96 85 58 31 15 5 213 208 190 177 193 217 234 244 250 246 200 83 34 34 36 35 36 47 70 91 96 82 58 35 15 3 220 210 190 180 195 217 232 240 247 242 186 80 35 34 38 40 44 56 76 90 92 80 63 47 24 5 211 203 171 166 187 213 226 228 236 227 166 87 43 36 39 40 45 56 70 81 85 79 71 61 35 8 192 188 147 156 179 195 208 203 198 177 126 81 48 38 38 37 40 49 59 68 74 76 75 65 36 8 153 151 134 169 184 174 170 162 137 107 89 67 48 41 40 37 37 43 50 58 67 72 70 54 25 6 82 97 118 172 184 160 134 119 104 88 77 64 53 47 41 37 37 38 43 51 60 61 53 35 16 5 101 128 112 94 106 115 121 124 123 111 94 86 85 86 86 92 118 140 148 153 156 162 168 167 135 78 129 131 122 113 114 115 132 145 144 131 111 96 90 93 102 118 135 148 154 158 161 166 173 174 152 126 132 131 128 120 120 125 145 162 153 132 110 92 88 96 114 133 146 154 159 163 166 170 177 181 167 149 129 122 127 130 148 159 166 179 164 128 96 85 88 98 112 126 138 148 155 161 165 170 177 179 166 152 128 120 143 161 180 188 185 188 172 132 97 86 88 94 104 118 129 137 145 153 160 168 173 175 164 152 137 138 174 191 197 200 195 192 180 146 114 102 98 94 100 116 125 128 132 140 150 160 166 167 155 143 162 163 194 206 206 204 197 193 188 171 141 125 119 106 103 115 122 123 126 131 138 148 154 156 144 132 206 197 209 215 212 204 196 190 187 184 169 150 138 122 111 117 120 119 121 123 125 132 140 144 136 125 229 221 222 224 217 206 196 186 177 182 186 176 162 139 120 117 115 111 110 110 109 116 127 135 132 124 234 230 228 228 221 209 196 182 164 165 180 182 174 152 128 119 109 98 94 94 96 105 119 131 131 125 233 230 226 226 223 211 192 176 155 144 155 165 166 151 133 124 107 89 82 86 92 103 116 128 129 126 229 224 220 222 223 211 186 167 150 131 131 144 151 142 132 126 108 85 78 85 95 105 114 124 128 126 224 220 216 220 223 211 179 155 141 125 120 132 139 132 128 127 114 92 82 88 99 106 111 121 126 123 224 225 220 220 224 214 180 141 126 118 114 122 128 123 122 125 120 106 96 97 102 105 108 117 119 116 226 231 224 219 223 221 195 143 116 113 112 117 119 117 118 123 123 117 112 112 111 109 107 108 107 104 225 232 224 214 218 223 213 178 131 112 111 113 113 112 115 121 123 121 122 125 124 119 109 98 91 88 223 230 221 208 209 220 227 219 184 135 115 110 108 108 113 119 122 121 123 130 134 130 115 93 76 66 219 228 215 202 201 216 235 238 222 182 139 113 106 107 112 119 123 122 122 128 135 134 118 92 68 53 217 223 209 200 202 218 239 243 237 219 178 128 104 104 110 119 124 124 122 127 134 133 118 91 62 47 216 219 205 199 207 226 242 246 247 241 210 147 103 98 104 114 122 124 124 129 133 130 114 85 53 35 220 216 202 198 211 231 244 248 250 247 220 156 103 93 100 110 118 123 128 132 132 124 105 77 49 33 226 218 200 194 207 230 243 246 249 245 218 156 103 93 100 110 119 125 132 135 133 124 108 88 64 46 223 219 196 189 203 227 239 241 243 240 211 156 107 97 103 111 118 124 130 134 132 126 119 109 89 68 217 217 193 191 203 218 231 228 225 218 190 147 109 99 104 109 114 121 126 128 127 126 127 123 105 86 204 202 187 199 206 207 211 205 194 181 160 128 104 100 104 108 113 118 121 121 121 126 130 123 103 87 148 164 174 202 208 200 190 180 167 153 137 118 107 105 107 110 114 117 118 116 116 119 118 108 87 59 66 85 82 81 83 88 101 108 108 100 88 79 77 79 78 82 91 100 106 111 113 113 115 118 101 65 83 83 84 84 85 91 105 114 112 103 88 77 74 76 80 86 94 100 105 110 112 114 118 121 110 97 84 80 85 88 95 104 114 123 118 102 82 70 68 71 78 87 92 97 102 105 110 115 121 124 117 110 87 80 91 100 113 124 126 129 122 101 77 65 65 68 73 81 88 94 98 101 106 112 119 121 115 109 96 91 118 131 134 139 135 133 125 105 81 68 66 66 71 80 88 93 95 98 102 108 113 114 108 102 109 112 146 158 152 148 141 137 130 118 100 88 81 73 72 81 89 92 92 94 98 102 104 105 96 87 129 131 159 168 160 153 144 139 135 131 120 113 106 90 79 83 88 89 90 90 92 94 95 97 87 76 158 157 170 172 162 152 144 139 133 132 129 126 121 106 91 88 88 87 86 85 85 85 87 91 86 78 182 179 180 177 164 149 142 137 126 124 129 129 125 114 99 92 88 82 79 78 77 78 81 88 90 87 190 187 183 179 167 147 137 132 120 113 120 123 122 116 105 96 87 76 71 71 72 75 79 87 93 93 190 186 180 178 171 150 128 123 117 106 107 111 115 115 110 102 88 72 65 67 71 76 80 86 92 94 189 183 175 175 174 153 120 112 113 103 98 100 105 109 111 107 93 72 62 66 74 79 81 84 88 90 187 181 172 172 172 153 116 102 103 96 90 91 95 99 105 108 100 80 65 67 75 81 81 81 82 82 185 184 173 169 170 158 125 95 88 86 84 86 88 91 97 104 105 93 77 72 77 81 81 79 76 73 183 189 176 166 166 165 140 98 80 81 82 84 86 88 91 98 103 101 92 85 84 85 83 77 69 63 179 190 179 164 160 164 154 123 92 81 82 85 85 87 90 95 100 101 99 95 92 91 86 74 61 55 174 187 180 163 155 161 169 167 143 106 89 86 86 87 91 95 98 98 96 95 95 95 89 74 55 47 171 182 173 160 153 159 185 200 189 156 115 90 86 88 93 99 101 98 91 88 91 94 91 75 51 40 168 175 163 154 154 165 198 213 209 194 156 106 83 84 91 100 105 101 90 83 85 88 87 73 48 35 165 169 155 149 155 176 207 218 219 213 183 127 83 78 84 96 104 102 92 83 82 83 80 66 43 31 167 164 148 144 154 183 211 220 224 218 191 138 86 74 79 91 100 101 94 86 82 80 72 57 39 31 172 165 145 139 151 182 209 217 221 217 191 138 86 73 79 89 96 97 95 90 86 82 74 62 49 42 170 167 145 138 150 177 199 206 212 210 186 136 88 77 82 89 94 95 95 93 88 84 81 76 68 64 164 164 145 143 151 169 185 187 190 190 168 126 89 79 83 89 93 95 96 92 87 85 87 88 85 82 157 155 146 149 151 159 168 165 161 155 135 104 82 79 83 89 93 96 95 89 83 85 91 94 89 83 115 130 138 153 150 148 148 142 131 118 104 89 80 81 86 90 94 97 95 87 81 83 88 88 78 56 0 0 0 0 0 0 0 0 0 0 0 0 0 0 0 0 0 0 0 0 0 0 0 0 0 0 0 0 0 0 0 0 0 0 0 0 0 0 0 0 0 0 0 0 0 0 0 0 0 0 0 0 0 0 0 0 0 0 0 0 0 0 0 0 0 0 0 0 0 0 0 0 0 0 0 0 0 0 0 0 0 0 0 0 0 0 0 0 0 0 0 0 0 0 0 0 0 0 0 0 0 0 0 0 0 0 0 0 0 0 0 0 0 0 0 0 0 0 0 0 0 0 0 0 0 0 0 0 0 0 0 0 0 0 0 0 0 0 0 0 0 0 0 0 0 0 0 0 0 0 0 0 0 0 0 0 0 0 0 0 0 0 0 0 0 0 0 0 0 0 0 0 0 0 0 0 0 0 0 0 0 0 0 0 0 0 0 0 0 0 0 0 0 0 0 0 0 0 0 0 0 0 0 0 0 0 0 0 0 0 0 0 0 0 0 0 0 0 0 0 0 0 0 0 0 0 0 0 0 0 0 0 0 0 0 0 0 0 0 0 0 0 0 0 0 0 0 0 0 0 0 0 0 0 0 0 0 0 0 0 0 0 0 0 0 0 0 0 0 0 0 0 0 0 0 0 0 0 0 0 0 0 0 0 0 0 0 0 0 0 0 0 0 0 0 0 0 0 0 0 0 0 0 0 0 0 0 0 0 0 0 0 0 0 0 0 0 0 0 0 0 0 0 0 0 0 0 0 0 0 0 0 0 0 0 0 0 0 0 0 0 0 0 0 0 0 0 0 0 0 0 0 0 0 0 0 0 0 0 0 0 0 0 0 0 0 0 0 0 0 0 0 0 0 0 0 0 0 0 0 0 0 0 0 0 0 0 0 0 0 0 0 0 0 0 0 0 0 0 0 0 0 0 0 0 0 0 0 0 0 0 0 0 0 0 0 0 0 0 0 0 0 0 0 0 0 0 0 0 0 0 0 0 0 0 0 0 0 0 0 0 0 0 0 0 0 0 0 0 0 0 0 0 0 0 0 0 0 0 0 0 0 0 0 0 0 0 0 0 0 0 0 0 0 0 0 0 0 0 0 0 0 0 0 0 0 0 0 0 0 0 0 0 0 0 0 0 0 0 0 0 0 0 0 0 0 0 0 0 0 0 0 0 0 0 0 0 0 0 0 0 0 0 0 0 0 0 0 0 0 0 0 0 0 0 0 0 0 0 0 0 0 0 0 0 0 0 0 0 0 0 0 0 0 0 0 0 0 0 0 0 0 0 0 0 0 0 0 0 0 0 0 0 0 0 0 0 0 0 0 0 0 0 0 0 0 0 0 0 0 0 0 0 0 0 0 0 0 0 0 0 0 0 0 0 0 0 0 0 0 0 0 0 0 0 0 0 0 0 0 0 0 0 0 0 0 0 0 0 0 0 0 0 0 0 0 0 0 0 0 0 0 0 0 0 0 0 0 0 0 0 0 0 0 0 0 0 0 0 0 0 0 0 0 0 0 0 0 0 0 0 0 0 0 0 0 
</DataArray>
<DataArray Name="HRRPUV" NumberOfComponents="1" type="UInt8" format="ascii">